[Molden Format]
[FR-COORD] # Coordinates in bohr
  C    +2.466168    -0.388788    -0.136150 
  C    -0.087800    +0.807672    +0.551845 
  O    -2.097538    -0.746732    -0.316368 
  H    +4.000644    +0.848898    +0.432290 
  H    +2.693479    -2.195866    +0.812823 
  H    +2.583855    -0.699793    -2.160757 
  H    -0.213854    +1.224873    +2.579062 
  H    -0.188692    +2.945175    -0.515275 
  H    -3.648871    +0.126486    +0.261641 
  H    -0.255929    +4.613812    -1.338404 
[FREQ] # Frequencies in cm^-1
 -2761.0963
  198.6764
  369.5763
  393.7344
  434.3552
  474.8805
 1037.6452
 1079.2021
 1221.3589
 1336.2525
 1365.6654
 1514.2706
 1567.2997
 1659.9777
 1701.7297
 1711.7962
 1774.8767
 1817.2551
 1828.1422
 3569.1111
 3591.6195
 3748.5757
 3759.0403
 4234.3086
[FR-NORM-COORD] # Displacements in bohr
vibration  1
      -0.002     +0.014     -0.009
      -0.003     -0.178     +0.068
      +0.014     +0.027     +0.001
      -0.000     +0.002     +0.000
      -0.002     +0.001     +0.002
      +0.002     -0.001     -0.002
      -0.019     +0.068     -0.012
      -0.030     +0.784     -0.391
      -0.003     -0.005     +0.002
      +0.014     -0.388     +0.192
vibration  2
      +0.001     +0.013     -0.007
      +0.004     +0.073     -0.101
      +0.002     -0.078     +0.178
      +0.017     -0.245     +0.493
      -0.261     -0.239     -0.402
      +0.245     +0.474     -0.060
      +0.012     +0.086     -0.042
      -0.011     -0.017     -0.109
      +0.001     +0.020     -0.014
      -0.028     -0.067     -0.202
vibration  3
      +0.010     -0.043     -0.052
      +0.058     -0.025     +0.092
      +0.054     -0.039     +0.144
      +0.023     -0.022     -0.051
      +0.011     -0.011     -0.014
      -0.043     -0.022     -0.016
      +0.026     -0.007     +0.031
      -0.083     -0.007     +0.036
      -0.008     +0.477     -0.753
      -0.378     -0.019     +0.052
vibration  4
      -0.038     -0.227     +0.077
      +0.103     +0.156     -0.052
      +0.183     +0.158     -0.135
      +0.065     -0.161     +0.024
      -0.151     -0.063     +0.065
      -0.004     -0.125     +0.032
      +0.027     +0.035     -0.014
      -0.166     +0.052     +0.001
      +0.044     -0.176     +0.285
      -0.772     +0.053     +0.058
vibration  5
      -0.377     -0.087     -0.058
      -0.094     +0.366     -0.002
      +0.460     -0.263     +0.055
      +0.022     -0.165     -0.074
      -0.262     -0.042     -0.014
      -0.208     -0.063     -0.017
      -0.047     +0.133     -0.006
      +0.024     +0.134     +0.017
      +0.005     -0.149     -0.159
      +0.262     +0.237     +0.239
vibration  6
      +0.201     -0.026     +0.068
      +0.017     +0.002     -0.493
      -0.258     -0.123     +0.199
      -0.012     +0.032     +0.127
      +0.001     +0.032     +0.111
      +0.260     -0.078     +0.042
      +0.043     +0.077     -0.155
      -0.006     +0.069     -0.027
      -0.012     +0.085     +0.017
      +0.001     +0.353     +0.560
vibration  7
      +0.222     -0.121     +0.147
      -0.033     +0.043     +0.127
      -0.124     -0.038     -0.082
      +0.159     -0.036     -0.201
      +0.315     -0.164     -0.259
      -0.335     +0.212     -0.023
      -0.294     +0.489     -0.081
      +0.098     -0.141     -0.226
      -0.037     -0.038     +0.012
      -0.065     +0.096     +0.156
vibration  8
      -0.459     -0.038     +0.079
      +0.116     -0.321     -0.165
      +0.305     +0.197     +0.066
      -0.415     +0.292     +0.102
      +0.186     +0.008     -0.027
      -0.047     +0.166     +0.005
      +0.059     +0.152     -0.105
      +0.135     -0.203     -0.145
      +0.118     +0.079     +0.057
      -0.068     -0.039     +0.145
vibration  9
      -0.123     +0.399     +0.189
      +0.351     -0.221     -0.132
      -0.127     -0.118     -0.073
      +0.258     -0.188     -0.095
      -0.405     +0.054     +0.014
      -0.374     +0.015     +0.056
      +0.024     -0.031     -0.061
      +0.046     -0.125     -0.047
      +0.167     +0.230     +0.139
      +0.004     -0.101     +0.087
vibration  10
      +0.002     -0.106     +0.240
      -0.038     +0.067     -0.355
      +0.083     -0.002     +0.150
      +0.004     +0.053     -0.124
      +0.218     -0.117     -0.147
      -0.263     +0.180     +0.023
      -0.303     -0.515     -0.011
      +0.072     +0.295     +0.184
      +0.103     +0.119     +0.068
      -0.037     +0.128     -0.191
vibration  11
      +0.165     +0.069     -0.118
      -0.412     -0.269     -0.087
      +0.324     +0.293     +0.169
      +0.161     -0.127     -0.015
      -0.152     +0.022     +0.021
      +0.079     -0.136     -0.013
      -0.461     -0.007     -0.062
      -0.275     -0.205     -0.051
      +0.118     +0.096     +0.055
      +0.089     -0.118     +0.102
vibration  12
      -0.043     +0.052     -0.222
      +0.105     +0.039     +0.119
      -0.055     -0.097     +0.026
      -0.063     +0.008     +0.086
      -0.126     +0.097     +0.113
      +0.193     -0.102     -0.038
      -0.538     +0.019     -0.002
      +0.690     +0.034     +0.058
      +0.027     +0.034     +0.040
      -0.182     -0.021     -0.007
vibration  13
      -0.094     -0.125     -0.113
      +0.234     +0.114     +0.193
      -0.069     -0.226     -0.152
      -0.152     +0.066     +0.074
      +0.077     +0.029     +0.069
      +0.132     +0.011     -0.032
      -0.276     +0.148     +0.017
      -0.444     +0.102     +0.039
      +0.344     +0.429     +0.250
      +0.113     +0.152     -0.090
vibration  14
      -0.000     +0.052     -0.030
      -0.080     -0.121     +0.210
      +0.027     +0.014     -0.010
      +0.033     -0.046     +0.036
      -0.017     +0.026     +0.016
      +0.007     -0.043     +0.002
      +0.069     -0.319     +0.134
      +0.077     -0.045     -0.676
      +0.042     +0.050     +0.022
      -0.040     +0.559     -0.116
vibration  15
      +0.318     -0.134     -0.106
      +0.197     -0.097     +0.012
      -0.043     +0.085     +0.056
      -0.285     +0.320     +0.200
      -0.406     +0.023     +0.202
      -0.411     +0.133     -0.085
      -0.183     +0.019     -0.020
      -0.168     +0.046     +0.004
      -0.188     -0.214     -0.125
      +0.034     +0.133     -0.072
vibration  16
      +0.011     +0.113     +0.009
      -0.163     -0.435     +0.012
      +0.069     +0.037     -0.001
      +0.057     -0.056     +0.042
      -0.028     -0.019     -0.084
      -0.032     -0.148     +0.028
      +0.149     +0.397     -0.092
      +0.106     +0.333     +0.347
      +0.044     +0.032     +0.016
      -0.045     +0.428     -0.325
vibration  17
      -0.295     +0.128     +0.023
      +0.465     -0.157     -0.028
      -0.075     +0.128     +0.092
      +0.130     -0.215     -0.035
      +0.221     +0.056     -0.035
      +0.200     -0.055     +0.040
      -0.325     -0.019     -0.047
      -0.269     +0.027     -0.002
      -0.304     -0.346     -0.201
      +0.057     +0.139     -0.072
vibration  18
      +0.011     +0.075     -0.177
      -0.038     +0.065     -0.049
      +0.004     -0.012     -0.002
      +0.021     -0.314     +0.635
      +0.418     +0.165     +0.135
      -0.427     -0.196     -0.039
      +0.031     -0.028     -0.005
      +0.013     -0.016     +0.012
      +0.020     +0.022     +0.015
      +0.000     -0.070     +0.033
vibration  19
      +0.058     +0.159     +0.072
      +0.090     +0.094     +0.022
      -0.025     -0.016     -0.005
      -0.192     +0.243     +0.136
      -0.065     -0.277     -0.567
      -0.047     -0.631     +0.118
      -0.063     -0.051     +0.019
      -0.042     -0.034     -0.043
      -0.013     -0.009     -0.005
      +0.012     -0.048     +0.036
vibration  20
      -0.157     +0.081     +0.034
      +0.007     +0.000     +0.016
      +0.001     -0.000     +0.000
      +0.415     +0.339     +0.155
      +0.062     -0.522     +0.276
      +0.029     -0.081     -0.540
      +0.006     -0.015     -0.064
      +0.001     -0.003     +0.001
      -0.001     +0.000     -0.000
      +0.000     +0.002     -0.001
vibration  21
      +0.014     -0.011     -0.014
      -0.023     +0.062     +0.277
      +0.002     -0.004     -0.001
      -0.022     -0.014     -0.008
      -0.004     +0.025     -0.014
      +0.002     +0.006     +0.059
      +0.058     -0.197     -0.933
      -0.002     -0.001     -0.001
      -0.010     +0.008     +0.001
      -0.000     +0.009     -0.004
vibration  22
      -0.077     -0.250     +0.176
      +0.000     -0.000     +0.003
      +0.001     +0.000     -0.000
      +0.321     +0.258     +0.123
      -0.081     +0.663     -0.350
      +0.019     -0.061     -0.378
      +0.003     -0.002     -0.013
      -0.003     +0.004     -0.001
      +0.001     +0.000     +0.000
      -0.000     -0.000     +0.000
vibration  23
      +0.131     +0.138     +0.252
      -0.001     +0.002     +0.006
      -0.001     +0.000     -0.000
      -0.487     -0.396     -0.180
      -0.000     +0.022     -0.007
      +0.038     -0.101     -0.679
      +0.005     -0.007     -0.024
      -0.001     -0.000     -0.001
      -0.003     +0.000     +0.000
      -0.000     +0.000     -0.000
vibration  24
      -0.001     +0.001     +0.000
      -0.007     -0.013     -0.010
      +0.212     -0.101     -0.068
      +0.002     +0.000     +0.000
      -0.001     +0.001     -0.000
      -0.001     +0.000     +0.001
      -0.004     +0.001     +0.010
      -0.002     -0.002     +0.001
      -0.811     +0.443     +0.295
      -0.000     +0.001     -0.001
