 Entering Gaussian System, Link 0=/home/programs/G09_64/g09/g09
 Initial command:
 /home/programs/G09_64/g09/l1.exe /scratch/Gau-25455.inp -scrdir=/scratch/
 Entering Link 1 = /home/programs/G09_64/g09/l1.exe PID=     25457.
  
 Copyright (c) 1988,1990,1992,1993,1995,1998,2003,2009,2010,
            Gaussian, Inc.  All Rights Reserved.
  
 This is part of the Gaussian(R) 09 program.  It is based on
 the Gaussian(R) 03 system (copyright 2003, Gaussian, Inc.),
 the Gaussian(R) 98 system (copyright 1998, Gaussian, Inc.),
 the Gaussian(R) 94 system (copyright 1995, Gaussian, Inc.),
 the Gaussian 92(TM) system (copyright 1992, Gaussian, Inc.),
 the Gaussian 90(TM) system (copyright 1990, Gaussian, Inc.),
 the Gaussian 88(TM) system (copyright 1988, Gaussian, Inc.),
 the Gaussian 86(TM) system (copyright 1986, Carnegie Mellon
 University), and the Gaussian 82(TM) system (copyright 1983,
 Carnegie Mellon University). Gaussian is a federally registered
 trademark of Gaussian, Inc.
  
 This software contains proprietary and confidential information,
 including trade secrets, belonging to Gaussian, Inc.
  
 This software is provided under written license and may be
 used, copied, transmitted, or stored only in accord with that
 written license.
  
 The following legend is applicable only to US Government
 contracts under FAR:
  
                    RESTRICTED RIGHTS LEGEND
  
 Use, reproduction and disclosure by the US Government is
 subject to restrictions as set forth in subparagraphs (a)
 and (c) of the Commercial Computer Software - Restricted
 Rights clause in FAR 52.227-19.
  
 Gaussian, Inc.
 340 Quinnipiac St., Bldg. 40, Wallingford CT 06492
  
  
 ---------------------------------------------------------------
 Warning -- This program may not be used in any manner that
 competes with the business of Gaussian, Inc. or will provide
 assistance to any competitor of Gaussian, Inc.  The licensee
 of this program is prohibited from giving any competitor of
 Gaussian, Inc. access to this program.  By using this program,
 the user acknowledges that Gaussian, Inc. is engaged in the
 business of creating and licensing software in the field of
 computational chemistry and represents and warrants to the
 licensee that it is not a competitor of Gaussian, Inc. and that
 it will not use this program in any manner prohibited above.
 ---------------------------------------------------------------
  

 Cite this work as:
 Gaussian 09, Revision B.01,
 M. J. Frisch, G. W. Trucks, H. B. Schlegel, G. E. Scuseria, 
 M. A. Robb, J. R. Cheeseman, G. Scalmani, V. Barone, B. Mennucci, 
 G. A. Petersson, H. Nakatsuji, M. Caricato, X. Li, H. P. Hratchian, 
 A. F. Izmaylov, J. Bloino, G. Zheng, J. L. Sonnenberg, M. Hada, 
 M. Ehara, K. Toyota, R. Fukuda, J. Hasegawa, M. Ishida, T. Nakajima, 
 Y. Honda, O. Kitao, H. Nakai, T. Vreven, J. A. Montgomery, Jr., 
 J. E. Peralta, F. Ogliaro, M. Bearpark, J. J. Heyd, E. Brothers, 
 K. N. Kudin, V. N. Staroverov, T. Keith, R. Kobayashi, J. Normand, 
 K. Raghavachari, A. Rendell, J. C. Burant, S. S. Iyengar, J. Tomasi, 
 M. Cossi, N. Rega, J. M. Millam, M. Klene, J. E. Knox, J. B. Cross, 
 V. Bakken, C. Adamo, J. Jaramillo, R. Gomperts, R. E. Stratmann, 
 O. Yazyev, A. J. Austin, R. Cammi, C. Pomelli, J. W. Ochterski, 
 R. L. Martin, K. Morokuma, V. G. Zakrzewski, G. A. Voth, 
 P. Salvador, J. J. Dannenberg, S. Dapprich, A. D. Daniels, 
 O. Farkas, J. B. Foresman, J. V. Ortiz, J. Cioslowski, 
 and D. J. Fox, Gaussian, Inc., Wallingford CT, 2010.
 
 ******************************************
 Gaussian 09:  AM64L-G09RevB.01 12-Aug-2010
                24-Jan-2019 
 ******************************************
 %mem=1GB
 %chk=kk.chk
 ---------------------------------------------------
 #p hf/sto-3g scf=verytight opt NoSymm freq units=au
 ---------------------------------------------------
 1/18=20,19=15,20=1,38=1/1,3;
 2/9=110,12=2,15=1,17=6,18=5,40=1/2;
 3/6=3,11=9,16=1,25=1,30=1,71=1/1,2,3;
 4//1;
 5/5=2,17=3,38=5/2;
 6/7=2,8=2,9=2,10=2,28=1/1;
 7/30=1/1,2,3,16;
 1/18=20,19=15/3(2);
 2/9=110,15=1/2;
 99//99;
 2/9=110,15=1/2;
 3/6=3,11=9,16=1,25=1,30=1,71=1/1,2,3;
 4/5=5,16=3/1;
 5/5=2,17=3,38=5/2;
 7/30=1/1,2,3,16;
 1/18=20,19=15/3(-5);
 2/9=110,15=1/2;
 6/7=2,8=2,9=2,10=2,19=2,28=1/1;
 99/9=1/99;
 Leave Link    1 at Thu Jan 24 17:19:12 2019, MaxMem=  134217728 cpu:       0.0
 (Enter /home/programs/G09_64/g09/l101.exe)
 ---
 ---
 ---
 Symbolic Z-matrix:
 Charge =  0 Multiplicity = 1
 C                     0.10557   1.07591  -0.00045 
 C                     2.30034  -0.72806  -0.00019 
 H                     4.07754   0.29973   0.0005 
 H                     2.23787  -1.92802   1.66281 
 H                     2.23856  -1.92689  -1.66398 
 H                     0.18361   2.29024   1.66566 
 H                     0.18303   2.28976  -1.66697 
 O                    -2.14245  -0.37219   0.00063 
 H                    -3.56512   0.74033  -0.0003 
 
 NAtoms=      9 NQM=      9 NQMF=      0 NMic=      0 NMicF=      0 NTot=      9.
                    Isotopes and Nuclear Properties:
 (Nuclear quadrupole moments (NQMom) in fm**2, nuclear magnetic moments (NMagM)
  in nuclear magnetons)

  Atom         1           2           3           4           5           6           7           8           9
 IAtWgt=          12          12           1           1           1           1           1          16           1
 AtmWgt=  12.0000000  12.0000000   1.0078250   1.0078250   1.0078250   1.0078250   1.0078250  15.9949146   1.0078250
 NucSpn=           0           0           1           1           1           1           1           0           1
 AtZEff=   0.0000000   0.0000000   0.0000000   0.0000000   0.0000000   0.0000000   0.0000000   0.0000000   0.0000000
 NQMom=    0.0000000   0.0000000   0.0000000   0.0000000   0.0000000   0.0000000   0.0000000   0.0000000   0.0000000
 NMagM=    0.0000000   0.0000000   2.7928460   2.7928460   2.7928460   2.7928460   2.7928460   0.0000000   2.7928460
 Leave Link  101 at Thu Jan 24 17:19:12 2019, MaxMem=  134217728 cpu:       0.1
 (Enter /home/programs/G09_64/g09/l103.exe)

 GradGradGradGradGradGradGradGradGradGradGradGradGradGradGradGradGradGrad
 Berny optimization.
 Initialization pass.
                           ----------------------------
                           !    Initial Parameters    !
                           ! (Angstroms and Degrees)  !
 --------------------------                            --------------------------
 ! Name  Definition              Value          Derivative Info.                !
 --------------------------------------------------------------------------------
 ! R1    R(1,2)                  1.5034         estimate D2E/DX2                !
 ! R2    R(1,6)                  1.0918         estimate D2E/DX2                !
 ! R3    R(1,7)                  1.0918         estimate D2E/DX2                !
 ! R4    R(1,8)                  1.4151         estimate D2E/DX2                !
 ! R5    R(2,3)                  1.0864         estimate D2E/DX2                !
 ! R6    R(2,4)                  1.0857         estimate D2E/DX2                !
 ! R7    R(2,5)                  1.0857         estimate D2E/DX2                !
 ! R8    R(8,9)                  0.9557         estimate D2E/DX2                !
 ! A1    A(2,1,6)              110.1473         estimate D2E/DX2                !
 ! A2    A(2,1,7)              110.1603         estimate D2E/DX2                !
 ! A3    A(2,1,8)              107.7934         estimate D2E/DX2                !
 ! A4    A(6,1,7)              107.7337         estimate D2E/DX2                !
 ! A5    A(6,1,8)              110.5004         estimate D2E/DX2                !
 ! A6    A(7,1,8)              110.5178         estimate D2E/DX2                !
 ! A7    A(1,2,3)              110.5402         estimate D2E/DX2                !
 ! A8    A(1,2,4)              110.3604         estimate D2E/DX2                !
 ! A9    A(1,2,5)              110.3464         estimate D2E/DX2                !
 ! A10   A(3,2,4)              108.5957         estimate D2E/DX2                !
 ! A11   A(3,2,5)              108.595          estimate D2E/DX2                !
 ! A12   A(4,2,5)              108.3401         estimate D2E/DX2                !
 ! A13   A(1,8,9)              109.1861         estimate D2E/DX2                !
 ! D1    D(6,1,2,3)            -59.323          estimate D2E/DX2                !
 ! D2    D(6,1,2,4)             60.828          estimate D2E/DX2                !
 ! D3    D(6,1,2,5)           -179.464          estimate D2E/DX2                !
 ! D4    D(7,1,2,3)             59.3833         estimate D2E/DX2                !
 ! D5    D(7,1,2,4)            179.5343         estimate D2E/DX2                !
 ! D6    D(7,1,2,5)            -60.7577         estimate D2E/DX2                !
 ! D7    D(8,1,2,3)           -179.9554         estimate D2E/DX2                !
 ! D8    D(8,1,2,4)            -59.8044         estimate D2E/DX2                !
 ! D9    D(8,1,2,5)             59.9036         estimate D2E/DX2                !
 ! D10   D(2,1,8,9)           -179.9738         estimate D2E/DX2                !
 ! D11   D(6,1,8,9)             59.6157         estimate D2E/DX2                !
 ! D12   D(7,1,8,9)            -59.537          estimate D2E/DX2                !
 --------------------------------------------------------------------------------
 Trust Radius=3.00D-01 FncErr=1.00D-07 GrdErr=1.00D-07
 Number of steps in this run=     43 maximum allowed number of steps=    100.
 GradGradGradGradGradGradGradGradGradGradGradGradGradGradGradGradGradGrad

 Leave Link  103 at Thu Jan 24 17:19:12 2019, MaxMem=  134217728 cpu:       0.0
 (Enter /home/programs/G09_64/g09/l202.exe)
                          Input orientation:                          
 ---------------------------------------------------------------------
 Center     Atomic      Atomic             Coordinates (Angstroms)
 Number     Number       Type             X           Y           Z
 ---------------------------------------------------------------------
      1          6           0        0.055863    0.569349   -0.000239
      2          6           0        1.217290   -0.385272   -0.000102
      3          1           0        2.157739    0.158610    0.000264
      4          1           0        1.184229   -1.020262    0.879922
      5          1           0        1.184593   -1.019665   -0.880541
      6          1           0        0.097162    1.211942    0.881427
      7          1           0        0.096855    1.211687   -0.882120
      8          8           0       -1.133736   -0.196957    0.000332
      9          1           0       -1.886581    0.391767   -0.000158
 ---------------------------------------------------------------------
                    Distance matrix (angstroms):
                    1          2          3          4          5
     1  C    0.000000
     2  C    1.503401   0.000000
     3  H    2.141632   1.086394   0.000000
     4  H    2.138868   1.085701   1.763876   0.000000
     5  H    2.138675   1.085678   1.763849   1.760463   0.000000
     6  H    1.091772   2.140764   2.476274   2.482831   3.044192
     7  H    1.091784   2.140936   2.476855   3.044465   2.482359
     8  O    1.415051   2.358555   3.310624   2.612369   2.612936
     9  H    1.950544   3.199657   4.051035   3.492598   3.492753
                    6          7          8          9
     6  H    0.000000
     7  H    1.763547   0.000000
     8  O    2.067954   2.068176   0.000000
     9  H    2.320585   2.320376   0.955705   0.000000
 Symmetry turned off by external request.
 Stoichiometry    C2H6O
 Framework group  C1[X(C2H6O)]
 Deg. of freedom    21
 Full point group                 C1      NOp   1
 Rotational constants (GHZ):     35.6334656      9.5161033      8.2804819
 Leave Link  202 at Thu Jan 24 17:19:12 2019, MaxMem=  134217728 cpu:       0.0
 (Enter /home/programs/G09_64/g09/l301.exe)
 Standard basis: STO-3G (5D, 7F)
 Ernie: Thresh=  0.10000D-02 Tol=  0.10000D-05 Strict=F.
 Integral buffers will be    131072 words long.
 Raffenetti 1 integral format.
 Two-electron integral symmetry is turned off.
    21 basis functions,    63 primitive gaussians,    21 cartesian basis functions
    13 alpha electrons       13 beta electrons
       nuclear repulsion energy        82.3518546327 Hartrees.
 IExCor=    0 DFT=F Ex=HF Corr=None ExCW=0 ScaHFX=  1.000000
 ScaDFX=  1.000000  1.000000  1.000000  1.000000 ScalE2=  1.000000  1.000000
 IRadAn=      0 IRanWt=     -1 IRanGd=            0 ICorTp=0
 NAtoms=    9 NActive=    9 NUniq=    9 SFac= 1.00D+00 NAtFMM=   50 NAOKFM=F Big=F
 Leave Link  301 at Thu Jan 24 17:19:12 2019, MaxMem=  134217728 cpu:       0.1
 (Enter /home/programs/G09_64/g09/l302.exe)
 NPDir=0 NMtPBC=     1 NCelOv=     1 NCel=       1 NClECP=     1 NCelD=      1
         NCelK=      1 NCelE2=     1 NClLst=     1 CellRange=     0.0.
 One-electron integrals computed using PRISM.
 NBasis=    21 RedAO= T  NBF=    21
 NBsUse=    21 1.00D-06 NBFU=    21
 Leave Link  302 at Thu Jan 24 17:19:12 2019, MaxMem=  134217728 cpu:       0.1
 (Enter /home/programs/G09_64/g09/l303.exe)
 DipDrv:  MaxL=1.
 Leave Link  303 at Thu Jan 24 17:19:12 2019, MaxMem=  134217728 cpu:       0.1
 (Enter /home/programs/G09_64/g09/l401.exe)
 Harris functional with IExCor=  205 diagonalized for initial guess.
 ExpMin= 1.69D-01 ExpMax= 1.31D+02 ExpMxC= 1.31D+02 IAcc=1 IRadAn=         1 AccDes= 0.00D+00
 HarFok:  IExCor=  205 AccDes= 0.00D+00 IRadAn=         1 IDoV= 1
 ScaDFX=  1.000000  1.000000  1.000000  1.000000
 FoFCou: FMM=F IPFlag=           0 FMFlag=      100000 FMFlg1=           0
         NFxFlg=           0 DoJE=T BraDBF=F KetDBF=T FulRan=T
         Omega=  0.000000  0.000000  1.000000  0.000000  0.000000 ICntrl=     500 IOpCl=  0
         NMat0=    1 NMatS0=    1 NMatT0=    0 NMatD0=    1 NMtDS0=    0 NMtDT0=    0
         I1Cent=           4 NGrid=           0.
 Symmetry not used in FoFCou.
 Harris En= -152.343852420339    
 Leave Link  401 at Thu Jan 24 17:19:13 2019, MaxMem=  134217728 cpu:       0.2
 (Enter /home/programs/G09_64/g09/l502.exe)
 Closed shell SCF:
 Requested convergence on RMS density matrix=1.00D-08 within 128 cycles.
 Requested convergence on MAX density matrix=1.00D-06.
 Requested convergence on             energy=1.00D-06.
 No special actions if energy rises.
 Using DIIS extrapolation, IDIIS=  1040.
 Two-electron integral symmetry not used.
 Keep R1 ints in memory in canonical form, NReq=846549.
 IEnd=       19739 IEndB=       19739 NGot=   134217728 MDV=   134188268
 LenX=   134188268 LenY=   134187386
 Symmetry not used in FoFDir.
 MinBra= 0 MaxBra= 1 Meth= 1.
 IRaf=       0 NMat=   1 IRICut=       1 DoRegI=T DoRafI=F ISym2E= 0 JSym2E=0.

 Cycle   1  Pass 1  IDiag  1:
 E= -152.045221796782    
 DIIS: error= 4.61D-02 at cycle   1 NSaved=   1.
 NSaved= 1 IEnMin= 1 EnMin= -152.045221796782     IErMin= 1 ErrMin= 4.61D-02
 ErrMax= 4.61D-02 EMaxC= 1.00D-01 BMatC= 7.66D-02 BMatP= 7.66D-02
 IDIUse=3 WtCom= 5.39D-01 WtEn= 4.61D-01
 Coeff-Com:  0.100D+01
 Coeff-En:   0.100D+01
 Coeff:      0.100D+01
 Gap=     0.931 Goal=   None    Shift=    0.000
 GapD=    0.931 DampG=2.000 DampE=0.500 DampFc=1.0000 IDamp=-1.
 RMSDP=1.81D-02 MaxDP=1.06D-01              OVMax= 0.00D+00

 Cycle   2  Pass 1  IDiag  1:
 E= -152.126738626349     Delta-E=       -0.081516829567 Rises=F Damp=F
 DIIS: error= 8.59D-03 at cycle   2 NSaved=   2.
 NSaved= 2 IEnMin= 2 EnMin= -152.126738626349     IErMin= 2 ErrMin= 8.59D-03
 ErrMax= 8.59D-03 EMaxC= 1.00D-01 BMatC= 1.68D-03 BMatP= 7.66D-02
 IDIUse=3 WtCom= 9.14D-01 WtEn= 8.59D-02
 Coeff-Com:  0.671D-01 0.933D+00
 Coeff-En:   0.000D+00 0.100D+01
 Coeff:      0.613D-01 0.939D+00
 Gap=     0.922 Goal=   None    Shift=    0.000
 RMSDP=2.72D-03 MaxDP=2.29D-02 DE=-8.15D-02 OVMax= 0.00D+00

 Cycle   3  Pass 1  IDiag  1:
 E= -152.128597365715     Delta-E=       -0.001858739366 Rises=F Damp=F
 DIIS: error= 8.61D-04 at cycle   3 NSaved=   3.
 NSaved= 3 IEnMin= 3 EnMin= -152.128597365715     IErMin= 3 ErrMin= 8.61D-04
 ErrMax= 8.61D-04 EMaxC= 1.00D-01 BMatC= 3.49D-05 BMatP= 1.68D-03
 IDIUse=3 WtCom= 9.91D-01 WtEn= 8.61D-03
 Coeff-Com: -0.112D-01 0.124D-01 0.999D+00
 Coeff-En:   0.000D+00 0.000D+00 0.100D+01
 Coeff:     -0.111D-01 0.123D-01 0.999D+00
 Gap=     0.916 Goal=   None    Shift=    0.000
 RMSDP=4.76D-04 MaxDP=2.45D-03 DE=-1.86D-03 OVMax= 0.00D+00

 Cycle   4  Pass 1  IDiag  1:
 E= -152.128655689183     Delta-E=       -0.000058323468 Rises=F Damp=F
 DIIS: error= 2.12D-04 at cycle   4 NSaved=   4.
 NSaved= 4 IEnMin= 4 EnMin= -152.128655689183     IErMin= 4 ErrMin= 2.12D-04
 ErrMax= 2.12D-04 EMaxC= 1.00D-01 BMatC= 1.52D-06 BMatP= 3.49D-05
 IDIUse=3 WtCom= 9.98D-01 WtEn= 2.12D-03
 Coeff-Com:  0.420D-03-0.204D-01-0.156D+00 0.118D+01
 Coeff-En:   0.000D+00 0.000D+00 0.000D+00 0.100D+01
 Coeff:      0.420D-03-0.203D-01-0.156D+00 0.118D+01
 Gap=     0.916 Goal=   None    Shift=    0.000
 RMSDP=1.28D-04 MaxDP=7.71D-04 DE=-5.83D-05 OVMax= 0.00D+00

 Cycle   5  Pass 1  IDiag  1:
 E= -152.128658739032     Delta-E=       -0.000003049849 Rises=F Damp=F
 DIIS: error= 3.25D-05 at cycle   5 NSaved=   5.
 NSaved= 5 IEnMin= 5 EnMin= -152.128658739032     IErMin= 5 ErrMin= 3.25D-05
 ErrMax= 3.25D-05 EMaxC= 1.00D-01 BMatC= 2.36D-08 BMatP= 1.52D-06
 IDIUse=1 WtCom= 1.00D+00 WtEn= 0.00D+00
 Coeff-Com:  0.268D-03-0.199D-03-0.268D-01-0.211D-02 0.103D+01
 Coeff:      0.268D-03-0.199D-03-0.268D-01-0.211D-02 0.103D+01
 Gap=     0.916 Goal=   None    Shift=    0.000
 RMSDP=1.77D-05 MaxDP=1.15D-04 DE=-3.05D-06 OVMax= 0.00D+00

 Cycle   6  Pass 1  IDiag  1:
 E= -152.128658789181     Delta-E=       -0.000000050149 Rises=F Damp=F
 DIIS: error= 5.10D-06 at cycle   6 NSaved=   6.
 NSaved= 6 IEnMin= 6 EnMin= -152.128658789181     IErMin= 6 ErrMin= 5.10D-06
 ErrMax= 5.10D-06 EMaxC= 1.00D-01 BMatC= 7.91D-10 BMatP= 2.36D-08
 IDIUse=1 WtCom= 1.00D+00 WtEn= 0.00D+00
 Coeff-Com: -0.711D-04 0.315D-03 0.867D-02-0.124D-01-0.276D+00 0.128D+01
 Coeff:     -0.711D-04 0.315D-03 0.867D-02-0.124D-01-0.276D+00 0.128D+01
 Gap=     0.916 Goal=   None    Shift=    0.000
 RMSDP=3.25D-06 MaxDP=1.71D-05 DE=-5.01D-08 OVMax= 0.00D+00

 Cycle   7  Pass 1  IDiag  1:
 E= -152.128658791117     Delta-E=       -0.000000001937 Rises=F Damp=F
 DIIS: error= 1.44D-06 at cycle   7 NSaved=   7.
 NSaved= 7 IEnMin= 7 EnMin= -152.128658791117     IErMin= 7 ErrMin= 1.44D-06
 ErrMax= 1.44D-06 EMaxC= 1.00D-01 BMatC= 3.65D-11 BMatP= 7.91D-10
 IDIUse=1 WtCom= 1.00D+00 WtEn= 0.00D+00
 Coeff-Com: -0.169D-04 0.114D-04 0.168D-02 0.292D-03-0.649D-01 0.432D-01
 Coeff-Com:  0.102D+01
 Coeff:     -0.169D-04 0.114D-04 0.168D-02 0.292D-03-0.649D-01 0.432D-01
 Coeff:      0.102D+01
 Gap=     0.916 Goal=   None    Shift=    0.000
 RMSDP=6.97D-07 MaxDP=5.23D-06 DE=-1.94D-09 OVMax= 0.00D+00

 Cycle   8  Pass 1  IDiag  1:
 E= -152.128658791208     Delta-E=       -0.000000000090 Rises=F Damp=F
 DIIS: error= 2.51D-07 at cycle   8 NSaved=   8.
 NSaved= 8 IEnMin= 8 EnMin= -152.128658791208     IErMin= 8 ErrMin= 2.51D-07
 ErrMax= 2.51D-07 EMaxC= 1.00D-01 BMatC= 2.10D-12 BMatP= 3.65D-11
 IDIUse=1 WtCom= 1.00D+00 WtEn= 0.00D+00
 Coeff-Com:  0.904D-05-0.190D-04-0.958D-03 0.563D-03 0.335D-01-0.795D-01
 Coeff-Com: -0.295D+00 0.134D+01
 Coeff:      0.904D-05-0.190D-04-0.958D-03 0.563D-03 0.335D-01-0.795D-01
 Coeff:     -0.295D+00 0.134D+01
 Gap=     0.916 Goal=   None    Shift=    0.000
 RMSDP=2.00D-07 MaxDP=1.40D-06 DE=-9.02D-11 OVMax= 0.00D+00

 Cycle   9  Pass 1  IDiag  1:
 E= -152.128658791214     Delta-E=       -0.000000000006 Rises=F Damp=F
 DIIS: error= 2.98D-08 at cycle   9 NSaved=   9.
 NSaved= 9 IEnMin= 9 EnMin= -152.128658791214     IErMin= 9 ErrMin= 2.98D-08
 ErrMax= 2.98D-08 EMaxC= 1.00D-01 BMatC= 2.95D-14 BMatP= 2.10D-12
 IDIUse=1 WtCom= 1.00D+00 WtEn= 0.00D+00
 Coeff-Com: -0.221D-05 0.440D-05 0.235D-03-0.126D-03-0.835D-02 0.208D-01
 Coeff-Com:  0.744D-01-0.397D+00 0.131D+01
 Coeff:     -0.221D-05 0.440D-05 0.235D-03-0.126D-03-0.835D-02 0.208D-01
 Coeff:      0.744D-01-0.397D+00 0.131D+01
 Gap=     0.916 Goal=   None    Shift=    0.000
 RMSDP=2.21D-08 MaxDP=1.73D-07 DE=-5.97D-12 OVMax= 0.00D+00

 Cycle  10  Pass 1  IDiag  1:
 E= -152.128658791213     Delta-E=        0.000000000000 Rises=F Damp=F
 DIIS: error= 4.78D-09 at cycle  10 NSaved=  10.
 NSaved=10 IEnMin= 9 EnMin= -152.128658791214     IErMin=10 ErrMin= 4.78D-09
 ErrMax= 4.78D-09 EMaxC= 1.00D-01 BMatC= 7.13D-16 BMatP= 2.95D-14
 IDIUse=1 WtCom= 1.00D+00 WtEn= 0.00D+00
 Coeff-Com:  0.366D-06-0.709D-06-0.385D-04 0.206D-04 0.137D-02-0.351D-02
 Coeff-Com: -0.127D-01 0.724D-01-0.345D+00 0.129D+01
 Coeff:      0.366D-06-0.709D-06-0.385D-04 0.206D-04 0.137D-02-0.351D-02
 Coeff:     -0.127D-01 0.724D-01-0.345D+00 0.129D+01
 Gap=     0.916 Goal=   None    Shift=    0.000
 RMSDP=3.69D-09 MaxDP=2.95D-08 DE= 2.84D-13 OVMax= 0.00D+00

 SCF Done:  E(RHF) =  -152.128658791     A.U. after   10 cycles
             Convg  =    0.3686D-08             -V/T =  2.0078
 KE= 1.509512763643D+02 PE=-5.221199680289D+02 EE= 1.366881782408D+02
 Leave Link  502 at Thu Jan 24 17:19:13 2019, MaxMem=  134217728 cpu:       0.1
 (Enter /home/programs/G09_64/g09/l601.exe)
 Copying SCF densities to generalized density rwf, IOpCl= 0 IROHF=0.

 **********************************************************************

            Population analysis using the SCF density.

 **********************************************************************

 Alpha  occ. eigenvalues --  -20.24458 -11.09124 -11.03822  -1.28514  -0.97302
 Alpha  occ. eigenvalues --   -0.79527  -0.62752  -0.60896  -0.51449  -0.48380
 Alpha  occ. eigenvalues --   -0.48278  -0.40228  -0.34886
 Alpha virt. eigenvalues --    0.56704   0.64336   0.67755   0.71542   0.73137
 Alpha virt. eigenvalues --    0.77624   0.78793   0.79223
          Condensed to atoms (all electrons):
              1          2          3          4          5          6
     1  C    4.696715   0.365567  -0.020004  -0.021925  -0.021940   0.377198
     2  C    0.365567   4.729348   0.383988   0.385048   0.385047  -0.024104
     3  H   -0.020004   0.383988   0.618709  -0.020825  -0.020826  -0.001923
     4  H   -0.021925   0.385048  -0.020825   0.612128  -0.021437  -0.002739
     5  H   -0.021940   0.385047  -0.020826  -0.021437   0.612177   0.002032
     6  H    0.377198  -0.024104  -0.001923  -0.002739   0.002032   0.650476
     7  H    0.377204  -0.024090  -0.001914   0.002031  -0.002747  -0.028132
     8  O    0.271439  -0.021198   0.000669  -0.000713  -0.000710  -0.017104
     9  H   -0.041444   0.002897  -0.000089   0.000036   0.000035  -0.002956
              7          8          9
     1  C    0.377204   0.271439  -0.041444
     2  C   -0.024090  -0.021198   0.002897
     3  H   -0.001914   0.000669  -0.000089
     4  H    0.002031  -0.000713   0.000036
     5  H   -0.002747  -0.000710   0.000035
     6  H   -0.028132  -0.017104  -0.002956
     7  H    0.650432  -0.017085  -0.002965
     8  O   -0.017085   7.839838   0.260760
     9  H   -0.002965   0.260760   0.596019
 Mulliken atomic charges:
              1
     1  C    0.017191
     2  C   -0.182503
     3  H    0.062215
     4  H    0.068396
     5  H    0.068369
     6  H    0.047253
     7  H    0.047267
     8  O   -0.315895
     9  H    0.187707
 Sum of Mulliken atomic charges =   0.00000
 Mulliken charges with hydrogens summed into heavy atoms:
              1
     1  C    0.111710
     2  C    0.016478
     8  O   -0.128188
 Sum of Mulliken charges with hydrogens summed into heavy atoms =   0.00000
 Electronic spatial extent (au):  <R**2>=            188.8695
 Charge=              0.0000 electrons
 Dipole moment (field-independent basis, Debye):
    X=              0.0596    Y=              1.3991    Z=             -0.0013  Tot=              1.4004
 Quadrupole moment (field-independent basis, Debye-Ang):
   XX=            -16.9426   YY=            -18.4467   ZZ=            -18.4554
   XY=             -1.8225   XZ=              0.0018   YZ=             -0.0004
 Traceless Quadrupole moment (field-independent basis, Debye-Ang):
   XX=              1.0056   YY=             -0.4985   ZZ=             -0.5071
   XY=             -1.8225   XZ=              0.0018   YZ=             -0.0004
 Octapole moment (field-independent basis, Debye-Ang**2):
  XXX=            -15.0974  YYY=             -1.9504  ZZZ=              0.0020  XYY=             -3.4199
  XXY=              2.5672  XXZ=             -0.0004  XZZ=             -3.0702  YZZ=             -0.7835
  YYZ=              0.0014  XYZ=              0.0000
 Hexadecapole moment (field-independent basis, Debye-Ang**3):
 XXXX=           -125.7111 YYYY=            -52.5104 ZZZZ=            -27.0911 XXXY=              6.4580
 XXXZ=              0.0113 YYYX=              8.6129 YYYZ=              0.0020 ZZZX=              0.0069
 ZZZY=              0.0032 XXYY=            -31.6591 XXZZ=            -28.4672 YYZZ=            -11.8975
 XXYZ=              0.0011 YYXZ=              0.0032 ZZXY=              2.3230
 N-N= 8.235185463266D+01 E-N=-5.221199680280D+02  KE= 1.509512763643D+02
 No NMR shielding tensors so no spin-rotation constants.
 Leave Link  601 at Thu Jan 24 17:19:13 2019, MaxMem=  134217728 cpu:       0.1
 (Enter /home/programs/G09_64/g09/l701.exe)
 Compute integral first derivatives.
 ... and contract with generalized density number  0.
 Leave Link  701 at Thu Jan 24 17:19:13 2019, MaxMem=  134217728 cpu:       0.1
 (Enter /home/programs/G09_64/g09/l702.exe)
 L702 exits ... SP integral derivatives will be done elsewhere.
 Leave Link  702 at Thu Jan 24 17:19:13 2019, MaxMem=  134217728 cpu:       0.0
 (Enter /home/programs/G09_64/g09/l703.exe)
 Compute integral first derivatives, UseDBF=F ICtDFT=           0.
 Integral derivatives from FoFDir, PRISM(SPDF).
 Calling FoFJK, ICntrl=      2127 FMM=F ISym2X=0 I1Cent= 0 IOpClX= 0 NMat=1 NMatS=1 NMatT=0.
 FoFCou: FMM=F IPFlag=           0 FMFlag=      100000 FMFlg1=         800
         NFxFlg=           0 DoJE=F BraDBF=F KetDBF=F FulRan=T
         Omega=  0.000000  0.000000  1.000000  0.000000  0.000000 ICntrl=    2127 IOpCl=  0
         NMat0=    1 NMatS0=    1 NMatT0=    0 NMatD0=    1 NMtDS0=    0 NMtDT0=    0
         I1Cent=           0 NGrid=           0.
 Symmetry not used in FoFCou.
 Leave Link  703 at Thu Jan 24 17:19:13 2019, MaxMem=  134217728 cpu:       0.1
 (Enter /home/programs/G09_64/g09/l716.exe)
 Dipole        = 2.34500397D-02 5.50461469D-01-4.92092206D-04
 -------------------------------------------------------------------
 Center     Atomic                   Forces (Hartrees/Bohr)
 Number     Number              X              Y              Z
 -------------------------------------------------------------------
      1        6          -0.021710254    0.024772082    0.000065560
      2        6           0.024492668   -0.017639662   -0.000034224
      3        1          -0.000341905   -0.000578024   -0.000001247
      4        1           0.000339853   -0.000105844   -0.000289834
      5        1           0.000365677   -0.000142998    0.000283096
      6        1           0.002878412    0.005132160    0.003244921
      7        1           0.002874045    0.005089850   -0.003250843
      8        8           0.017909083   -0.053359090    0.000009239
      9        1          -0.026807579    0.036831526   -0.000026668
 -------------------------------------------------------------------
 Cartesian Forces:  Max     0.053359090 RMS     0.016476657
 Leave Link  716 at Thu Jan 24 17:19:13 2019, MaxMem=  134217728 cpu:       0.0
 (Enter /home/programs/G09_64/g09/l103.exe)

 GradGradGradGradGradGradGradGradGradGradGradGradGradGradGradGradGradGrad
 Berny optimization.
 Internal  Forces:  Max     0.043805958 RMS     0.010654970
 Search for a local minimum.
 Step number   1 out of a maximum of   43
 All quantities printed in internal units (Hartrees-Bohrs-Radians)
 RMS Force = .10655D-01 SwitMx=.10000D-02 MixMth= 1
 Mixed Optimization -- RFO/linear search
 Second derivative matrix not updated -- first step.
 ITU=  0
     Eigenvalues ---    0.00721   0.01493   0.05524   0.05849   0.05882
     Eigenvalues ---    0.06097   0.11153   0.13647   0.16000   0.16000
     Eigenvalues ---    0.16000   0.16000   0.21965   0.32023   0.34607
     Eigenvalues ---    0.34609   0.35233   0.35314   0.35317   0.43215
     Eigenvalues ---    0.56408
 RFO step:  Lambda=-1.03257300D-02 EMin= 7.20962309D-03
 Linear search not attempted -- first point.
 Iteration  1 RMS(Cart)=  0.04132060 RMS(Int)=  0.00227953
 Iteration  2 RMS(Cart)=  0.00263743 RMS(Int)=  0.00009774
 Iteration  3 RMS(Cart)=  0.00001153 RMS(Int)=  0.00009725
 Iteration  4 RMS(Cart)=  0.00000000 RMS(Int)=  0.00009725
 Variable       Old X    -DE/DX   Delta X   Delta X   Delta X     New X
                                 (Linear)    (Quad)   (Total)
    R1        2.84102   0.03093   0.00000   0.09356   0.09356   2.93458
    R2        2.06315   0.00575   0.00000   0.01613   0.01613   2.07928
    R3        2.06317   0.00573   0.00000   0.01607   0.01607   2.07925
    R4        2.67406   0.01643   0.00000   0.03713   0.03713   2.71119
    R5        2.05299  -0.00059   0.00000  -0.00161  -0.00161   2.05137
    R6        2.05168  -0.00018   0.00000  -0.00050  -0.00050   2.05117
    R7        2.05163  -0.00016   0.00000  -0.00043  -0.00043   2.05120
    R8        1.80602   0.04381   0.00000   0.07626   0.07626   1.88228
    A1        1.92243  -0.00135   0.00000  -0.01253  -0.01271   1.90973
    A2        1.92266  -0.00137   0.00000  -0.01287  -0.01305   1.90961
    A3        1.88135   0.00032   0.00000   0.00627   0.00630   1.88765
    A4        1.88031  -0.00102   0.00000  -0.01941  -0.01981   1.86050
    A5        1.92860   0.00171   0.00000   0.01945   0.01948   1.94807
    A6        1.92890   0.00169   0.00000   0.01906   0.01909   1.94799
    A7        1.92929   0.00028   0.00000   0.00162   0.00162   1.93091
    A8        1.92615   0.00043   0.00000   0.00248   0.00248   1.92863
    A9        1.92591   0.00049   0.00000   0.00292   0.00291   1.92882
   A10        1.89535  -0.00037   0.00000  -0.00226  -0.00226   1.89309
   A11        1.89534  -0.00039   0.00000  -0.00227  -0.00227   1.89307
   A12        1.89089  -0.00047   0.00000  -0.00273  -0.00273   1.88816
   A13        1.90566  -0.02257   0.00000  -0.13254  -0.13254   1.77312
    D1       -1.03538   0.00148   0.00000   0.01993   0.01981  -1.01557
    D2        1.06165   0.00147   0.00000   0.01977   0.01965   1.08130
    D3       -3.13224   0.00147   0.00000   0.01982   0.01970  -3.11254
    D4        1.03643  -0.00146   0.00000  -0.01972  -0.01960   1.01683
    D5        3.13347  -0.00147   0.00000  -0.01988  -0.01976   3.11370
    D6       -1.06042  -0.00147   0.00000  -0.01983  -0.01971  -1.08013
    D7       -3.14081  -0.00001   0.00000  -0.00023  -0.00023  -3.14105
    D8       -1.04378  -0.00002   0.00000  -0.00039  -0.00039  -1.04418
    D9        1.04552  -0.00002   0.00000  -0.00034  -0.00034   1.04518
   D10       -3.14113   0.00001   0.00000   0.00014   0.00014  -3.14099
   D11        1.04049   0.00044   0.00000   0.00002   0.00002   1.04051
   D12       -1.03912  -0.00046   0.00000  -0.00039  -0.00039  -1.03950
         Item               Value     Threshold  Converged?
 Maximum Force            0.043806     0.000450     NO 
 RMS     Force            0.010655     0.000300     NO 
 Maximum Displacement     0.146479     0.001800     NO 
 RMS     Displacement     0.041588     0.001200     NO 
 Predicted change in Energy=-5.356447D-03
 GradGradGradGradGradGradGradGradGradGradGradGradGradGradGradGradGradGrad

 Leave Link  103 at Thu Jan 24 17:19:13 2019, MaxMem=  134217728 cpu:       0.0
 (Enter /home/programs/G09_64/g09/l202.exe)
                          Input orientation:                          
 ---------------------------------------------------------------------
 Center     Atomic      Atomic             Coordinates (Angstroms)
 Number     Number       Type             X           Y           Z
 ---------------------------------------------------------------------
      1          6           0        0.021650    0.561408   -0.000073
      2          6           0        1.241315   -0.399818   -0.000172
      3          1           0        2.170582    0.161307    0.000131
      4          1           0        1.223768   -1.036355    0.878850
      5          1           0        1.224154   -1.036006   -0.879472
      6          1           0        0.072785    1.217218    0.881958
      7          1           0        0.072467    1.216792   -0.882414
      8          8           0       -1.173289   -0.232626    0.000262
      9          1           0       -1.880017    0.469281   -0.000285
 ---------------------------------------------------------------------
                    Distance matrix (angstroms):
                    1          2          3          4          5
     1  C    0.000000
     2  C    1.552912   0.000000
     3  H    2.185861   1.085540   0.000000
     4  H    2.184134   1.085434   1.761533   0.000000
     5  H    2.184282   1.085449   1.761529   1.758322   0.000000
     6  H    1.100310   2.181380   2.508649   2.530487   3.083068
     7  H    1.100289   2.181280   2.508988   3.082891   2.530117
     8  O    1.434701   2.420385   3.366995   2.676523   2.677140
     9  H    1.903897   3.240069   4.062290   3.559958   3.560160
                    6          7          8          9
     6  H    0.000000
     7  H    1.764372   0.000000
     8  O    2.105264   2.105193   0.000000
     9  H    2.269626   2.269167   0.996062   0.000000
 Symmetry turned off by external request.
 Stoichiometry    C2H6O
 Framework group  C1[X(C2H6O)]
 Deg. of freedom    21
 Full point group                 C1      NOp   1
 Rotational constants (GHZ):     34.6059648      9.1150648      7.9219314
 Leave Link  202 at Thu Jan 24 17:19:13 2019, MaxMem=  134217728 cpu:       0.0
 (Enter /home/programs/G09_64/g09/l301.exe)
 Standard basis: STO-3G (5D, 7F)
 Ernie: Thresh=  0.10000D-02 Tol=  0.10000D-05 Strict=F.
 Integral buffers will be    131072 words long.
 Raffenetti 1 integral format.
 Two-electron integral symmetry is turned off.
    21 basis functions,    63 primitive gaussians,    21 cartesian basis functions
    13 alpha electrons       13 beta electrons
       nuclear repulsion energy        80.9026073810 Hartrees.
 IExCor=    0 DFT=F Ex=HF Corr=None ExCW=0 ScaHFX=  1.000000
 ScaDFX=  1.000000  1.000000  1.000000  1.000000 ScalE2=  1.000000  1.000000
 IRadAn=      0 IRanWt=     -1 IRanGd=            0 ICorTp=0
 NAtoms=    9 NActive=    9 NUniq=    9 SFac= 1.00D+00 NAtFMM=   50 NAOKFM=F Big=F
 Leave Link  301 at Thu Jan 24 17:19:13 2019, MaxMem=  134217728 cpu:       0.0
 (Enter /home/programs/G09_64/g09/l302.exe)
 NPDir=0 NMtPBC=     1 NCelOv=     1 NCel=       1 NClECP=     1 NCelD=      1
         NCelK=      1 NCelE2=     1 NClLst=     1 CellRange=     0.0.
 One-electron integrals computed using PRISM.
 NBasis=    21 RedAO= T  NBF=    21
 NBsUse=    21 1.00D-06 NBFU=    21
 Leave Link  302 at Thu Jan 24 17:19:14 2019, MaxMem=  134217728 cpu:       0.1
 (Enter /home/programs/G09_64/g09/l303.exe)
 DipDrv:  MaxL=1.
 Leave Link  303 at Thu Jan 24 17:19:14 2019, MaxMem=  134217728 cpu:       0.0
 (Enter /home/programs/G09_64/g09/l401.exe)
 Initial guess read from the read-write file.
 B after Tr=     0.000000    0.000000    0.000000
         Rot=    1.000000    0.000000    0.000000    0.000000 Ang=   0.00 deg.
 Guess basis will be translated and rotated to current coordinates.
 Generating alternative initial guess.
 Harris functional with IExCor=  205 diagonalized for initial guess.
 ExpMin= 1.69D-01 ExpMax= 1.31D+02 ExpMxC= 1.31D+02 IAcc=1 IRadAn=         1 AccDes= 0.00D+00
 HarFok:  IExCor=  205 AccDes= 0.00D+00 IRadAn=         1 IDoV= 1
 ScaDFX=  1.000000  1.000000  1.000000  1.000000
 FoFCou: FMM=F IPFlag=           0 FMFlag=      100000 FMFlg1=           0
         NFxFlg=           0 DoJE=T BraDBF=F KetDBF=T FulRan=T
         Omega=  0.000000  0.000000  1.000000  0.000000  0.000000 ICntrl=     500 IOpCl=  0
         NMat0=    1 NMatS0=    1 NMatT0=    0 NMatD0=    1 NMtDS0=    0 NMtDT0=    0
         I1Cent=           4 NGrid=           0.
 Symmetry not used in FoFCou.
 Harris En= -152.345514127696    
 Leave Link  401 at Thu Jan 24 17:19:14 2019, MaxMem=  134217728 cpu:       0.2
 (Enter /home/programs/G09_64/g09/l502.exe)
 Closed shell SCF:
 Requested convergence on RMS density matrix=1.00D-08 within 128 cycles.
 Requested convergence on MAX density matrix=1.00D-06.
 Requested convergence on             energy=1.00D-06.
 No special actions if energy rises.
 Using DIIS extrapolation, IDIIS=  1040.
 Two-electron integral symmetry not used.
 Keep R1 ints in memory in canonical form, NReq=846549.
 IEnd=       19739 IEndB=       19739 NGot=   134217728 MDV=   134188268
 LenX=   134188268 LenY=   134187386
 Symmetry not used in FoFDir.
 MinBra= 0 MaxBra= 1 Meth= 1.
 IRaf=       0 NMat=   1 IRICut=       1 DoRegI=T DoRafI=F ISym2E= 0 JSym2E=0.

 Cycle   1  Pass 1  IDiag  1:
 E= -152.130056643406    
 DIIS: error= 7.70D-03 at cycle   1 NSaved=   1.
 NSaved= 1 IEnMin= 1 EnMin= -152.130056643406     IErMin= 1 ErrMin= 7.70D-03
 ErrMax= 7.70D-03 EMaxC= 1.00D-01 BMatC= 9.60D-04 BMatP= 9.60D-04
 IDIUse=3 WtCom= 9.23D-01 WtEn= 7.70D-02
 Coeff-Com:  0.100D+01
 Coeff-En:   0.100D+01
 Coeff:      0.100D+01
 Gap=     0.912 Goal=   None    Shift=    0.000
 GapD=    0.912 DampG=2.000 DampE=1.000 DampFc=2.0000 IDamp=-1.
 RMSDP=2.64D-03 MaxDP=2.06D-02              OVMax= 0.00D+00

 Cycle   2  Pass 1  IDiag  1:
 E= -152.131930752898     Delta-E=       -0.001874109492 Rises=F Damp=F
 DIIS: error= 2.38D-03 at cycle   2 NSaved=   2.
 NSaved= 2 IEnMin= 2 EnMin= -152.131930752898     IErMin= 2 ErrMin= 2.38D-03
 ErrMax= 2.38D-03 EMaxC= 1.00D-01 BMatC= 1.03D-04 BMatP= 9.60D-04
 IDIUse=3 WtCom= 9.76D-01 WtEn= 2.38D-02
 Coeff-Com: -0.274D+00 0.127D+01
 Coeff-En:   0.000D+00 0.100D+01
 Coeff:     -0.268D+00 0.127D+01
 Gap=     0.918 Goal=   None    Shift=    0.000
 RMSDP=1.17D-03 MaxDP=8.13D-03 DE=-1.87D-03 OVMax= 0.00D+00

 Cycle   3  Pass 1  IDiag  1:
 E= -152.132199594041     Delta-E=       -0.000268841144 Rises=F Damp=F
 DIIS: error= 5.87D-04 at cycle   3 NSaved=   3.
 NSaved= 3 IEnMin= 3 EnMin= -152.132199594041     IErMin= 3 ErrMin= 5.87D-04
 ErrMax= 5.87D-04 EMaxC= 1.00D-01 BMatC= 5.92D-06 BMatP= 1.03D-04
 IDIUse=3 WtCom= 9.94D-01 WtEn= 5.87D-03
 Coeff-Com: -0.334D-01-0.121D+00 0.115D+01
 Coeff-En:   0.000D+00 0.000D+00 0.100D+01
 Coeff:     -0.332D-01-0.120D+00 0.115D+01
 Gap=     0.917 Goal=   None    Shift=    0.000
 RMSDP=3.37D-04 MaxDP=2.97D-03 DE=-2.69D-04 OVMax= 0.00D+00

 Cycle   4  Pass 1  IDiag  1:
 E= -152.132216855527     Delta-E=       -0.000017261486 Rises=F Damp=F
 DIIS: error= 1.48D-04 at cycle   4 NSaved=   4.
 NSaved= 4 IEnMin= 4 EnMin= -152.132216855527     IErMin= 4 ErrMin= 1.48D-04
 ErrMax= 1.48D-04 EMaxC= 1.00D-01 BMatC= 2.73D-07 BMatP= 5.92D-06
 IDIUse=3 WtCom= 9.99D-01 WtEn= 1.48D-03
 Coeff-Com:  0.146D-01-0.514D-01-0.698D-01 0.111D+01
 Coeff-En:   0.000D+00 0.000D+00 0.000D+00 0.100D+01
 Coeff:      0.146D-01-0.513D-01-0.697D-01 0.111D+01
 Gap=     0.918 Goal=   None    Shift=    0.000
 RMSDP=6.02D-05 MaxDP=4.64D-04 DE=-1.73D-05 OVMax= 0.00D+00

 Cycle   5  Pass 1  IDiag  1:
 E= -152.132217534041     Delta-E=       -0.000000678514 Rises=F Damp=F
 DIIS: error= 1.84D-05 at cycle   5 NSaved=   5.
 NSaved= 5 IEnMin= 5 EnMin= -152.132217534041     IErMin= 5 ErrMin= 1.84D-05
 ErrMax= 1.84D-05 EMaxC= 1.00D-01 BMatC= 1.47D-08 BMatP= 2.73D-07
 IDIUse=1 WtCom= 1.00D+00 WtEn= 0.00D+00
 Coeff-Com:  0.455D-03 0.124D-01-0.574D-01-0.137D+00 0.118D+01
 Coeff:      0.455D-03 0.124D-01-0.574D-01-0.137D+00 0.118D+01
 Gap=     0.918 Goal=   None    Shift=    0.000
 RMSDP=1.51D-05 MaxDP=1.32D-04 DE=-6.79D-07 OVMax= 0.00D+00

 Cycle   6  Pass 1  IDiag  1:
 E= -152.132217573473     Delta-E=       -0.000000039432 Rises=F Damp=F
 DIIS: error= 4.17D-06 at cycle   6 NSaved=   6.
 NSaved= 6 IEnMin= 6 EnMin= -152.132217573473     IErMin= 6 ErrMin= 4.17D-06
 ErrMax= 4.17D-06 EMaxC= 1.00D-01 BMatC= 4.79D-10 BMatP= 1.47D-08
 IDIUse=1 WtCom= 1.00D+00 WtEn= 0.00D+00
 Coeff-Com: -0.525D-03 0.531D-03 0.886D-02-0.303D-01-0.112D+00 0.113D+01
 Coeff:     -0.525D-03 0.531D-03 0.886D-02-0.303D-01-0.112D+00 0.113D+01
 Gap=     0.918 Goal=   None    Shift=    0.000
 RMSDP=2.63D-06 MaxDP=1.79D-05 DE=-3.94D-08 OVMax= 0.00D+00

 Cycle   7  Pass 1  IDiag  1:
 E= -152.132217574737     Delta-E=       -0.000000001265 Rises=F Damp=F
 DIIS: error= 1.06D-06 at cycle   7 NSaved=   7.
 NSaved= 7 IEnMin= 7 EnMin= -152.132217574737     IErMin= 7 ErrMin= 1.06D-06
 ErrMax= 1.06D-06 EMaxC= 1.00D-01 BMatC= 2.20D-11 BMatP= 4.79D-10
 IDIUse=1 WtCom= 1.00D+00 WtEn= 0.00D+00
 Coeff-Com:  0.119D-03-0.787D-03 0.763D-03 0.127D-01-0.240D-01-0.272D+00
 Coeff-Com:  0.128D+01
 Coeff:      0.119D-03-0.787D-03 0.763D-03 0.127D-01-0.240D-01-0.272D+00
 Coeff:      0.128D+01
 Gap=     0.918 Goal=   None    Shift=    0.000
 RMSDP=6.49D-07 MaxDP=4.00D-06 DE=-1.26D-09 OVMax= 0.00D+00

 Cycle   8  Pass 1  IDiag  1:
 E= -152.132217574795     Delta-E=       -0.000000000058 Rises=F Damp=F
 DIIS: error= 9.57D-08 at cycle   8 NSaved=   8.
 NSaved= 8 IEnMin= 8 EnMin= -152.132217574795     IErMin= 8 ErrMin= 9.57D-08
 ErrMax= 9.57D-08 EMaxC= 1.00D-01 BMatC= 2.94D-13 BMatP= 2.20D-11
 IDIUse=1 WtCom= 1.00D+00 WtEn= 0.00D+00
 Coeff-Com:  0.673D-05-0.454D-05-0.127D-03 0.342D-03 0.215D-02-0.170D-01
 Coeff-Com: -0.126D-01 0.103D+01
 Coeff:      0.673D-05-0.454D-05-0.127D-03 0.342D-03 0.215D-02-0.170D-01
 Coeff:     -0.126D-01 0.103D+01
 Gap=     0.918 Goal=   None    Shift=    0.000
 RMSDP=5.44D-08 MaxDP=2.36D-07 DE=-5.78D-11 OVMax= 0.00D+00

 Cycle   9  Pass 1  IDiag  1:
 E= -152.132217574796     Delta-E=       -0.000000000001 Rises=F Damp=F
 DIIS: error= 2.29D-08 at cycle   9 NSaved=   9.
 NSaved= 9 IEnMin= 9 EnMin= -152.132217574796     IErMin= 9 ErrMin= 2.29D-08
 ErrMax= 2.29D-08 EMaxC= 1.00D-01 BMatC= 1.84D-14 BMatP= 2.94D-13
 IDIUse=1 WtCom= 1.00D+00 WtEn= 0.00D+00
 Coeff-Com: -0.755D-05 0.447D-04-0.252D-04-0.766D-03 0.108D-02 0.172D-01
 Coeff-Com: -0.691D-01-0.136D+00 0.119D+01
 Coeff:     -0.755D-05 0.447D-04-0.252D-04-0.766D-03 0.108D-02 0.172D-01
 Coeff:     -0.691D-01-0.136D+00 0.119D+01
 Gap=     0.918 Goal=   None    Shift=    0.000
 RMSDP=1.51D-08 MaxDP=6.95D-08 DE=-6.82D-13 OVMax= 0.00D+00

 Cycle  10  Pass 1  IDiag  1:
 E= -152.132217574796     Delta-E=        0.000000000000 Rises=F Damp=F
 DIIS: error= 3.03D-09 at cycle  10 NSaved=  10.
 NSaved=10 IEnMin=10 EnMin= -152.132217574796     IErMin=10 ErrMin= 3.03D-09
 ErrMax= 3.03D-09 EMaxC= 1.00D-01 BMatC= 3.54D-16 BMatP= 1.84D-14
 IDIUse=1 WtCom= 1.00D+00 WtEn= 0.00D+00
 Coeff-Com:  0.198D-05-0.124D-04 0.945D-05 0.207D-03-0.334D-03-0.453D-02
 Coeff-Com:  0.195D-01 0.220D-01-0.343D+00 0.131D+01
 Coeff:      0.198D-05-0.124D-04 0.945D-05 0.207D-03-0.334D-03-0.453D-02
 Coeff:      0.195D-01 0.220D-01-0.343D+00 0.131D+01
 Gap=     0.918 Goal=   None    Shift=    0.000
 RMSDP=2.12D-09 MaxDP=1.25D-08 DE=-5.68D-14 OVMax= 0.00D+00

 SCF Done:  E(RHF) =  -152.132217575     A.U. after   10 cycles
             Convg  =    0.2124D-08             -V/T =  2.0087
 KE= 1.508244625795D+02 PE=-5.191598364000D+02 EE= 1.353005488646D+02
 Leave Link  502 at Thu Jan 24 17:19:14 2019, MaxMem=  134217728 cpu:       0.1
 (Enter /home/programs/G09_64/g09/l701.exe)
 Compute integral first derivatives.
 ... and contract with generalized density number  0.
 Leave Link  701 at Thu Jan 24 17:19:14 2019, MaxMem=  134217728 cpu:       0.1
 (Enter /home/programs/G09_64/g09/l702.exe)
 L702 exits ... SP integral derivatives will be done elsewhere.
 Leave Link  702 at Thu Jan 24 17:19:14 2019, MaxMem=  134217728 cpu:       0.0
 (Enter /home/programs/G09_64/g09/l703.exe)
 Compute integral first derivatives, UseDBF=F ICtDFT=           0.
 Integral derivatives from FoFDir, PRISM(SPDF).
 Calling FoFJK, ICntrl=      2127 FMM=F ISym2X=0 I1Cent= 0 IOpClX= 0 NMat=1 NMatS=1 NMatT=0.
 FoFCou: FMM=F IPFlag=           0 FMFlag=      100000 FMFlg1=         800
         NFxFlg=           0 DoJE=F BraDBF=F KetDBF=F FulRan=T
         Omega=  0.000000  0.000000  1.000000  0.000000  0.000000 ICntrl=    2127 IOpCl=  0
         NMat0=    1 NMatS0=    1 NMatT0=    0 NMatD0=    1 NMtDS0=    0 NMtDT0=    0
         I1Cent=           0 NGrid=           0.
 Symmetry not used in FoFCou.
 Leave Link  703 at Thu Jan 24 17:19:14 2019, MaxMem=  134217728 cpu:       0.1
 (Enter /home/programs/G09_64/g09/l716.exe)
 Dipole        = 5.40001009D-02 5.67535250D-01-3.74378250D-04
 -------------------------------------------------------------------
 Center     Atomic                   Forces (Hartrees/Bohr)
 Number     Number              X              Y              Z
 -------------------------------------------------------------------
      1        6           0.013652630   -0.004291408   -0.000025279
      2        6          -0.003502894    0.003793953    0.000014107
      3        1          -0.000378813    0.001235780    0.000000317
      4        1          -0.001034200    0.000459417    0.000608903
      5        1          -0.001053009    0.000475353   -0.000599345
      6        1          -0.000883926   -0.002829615   -0.000959952
      7        1          -0.000883802   -0.002805572    0.000956577
      8        8          -0.004592164    0.012561412   -0.000005068
      9        1          -0.001323821   -0.008599319    0.000009740
 -------------------------------------------------------------------
 Cartesian Forces:  Max     0.013652630 RMS     0.004347612
 Leave Link  716 at Thu Jan 24 17:19:14 2019, MaxMem=  134217728 cpu:       0.0
 (Enter /home/programs/G09_64/g09/l103.exe)

 GradGradGradGradGradGradGradGradGradGradGradGradGradGradGradGradGradGrad
 Berny optimization.
 Using GEDIIS/GDIIS optimizer.
 Internal  Forces:  Max     0.013240531 RMS     0.003108886
 Search for a local minimum.
 Step number   2 out of a maximum of   43
 All quantities printed in internal units (Hartrees-Bohrs-Radians)
 RMS Force = .31089D-02 SwitMx=.10000D-02 MixMth= 1
 Mixed Optimization -- RFO/linear search
 Update second derivatives using D2CorX and points    1    2
 DE= -3.56D-03 DEPred=-5.36D-03 R= 6.64D-01
 SS=  1.41D+00  RLast= 1.95D-01 DXNew= 5.0454D-01 5.8412D-01
 Trust test= 6.64D-01 RLast= 1.95D-01 DXMaxT set to 5.05D-01
 ITU=  1  0
 Use linear search instead of GDIIS.
     Eigenvalues ---    0.00721   0.01493   0.05461   0.05828   0.05856
     Eigenvalues ---    0.06285   0.11071   0.13676   0.15947   0.16000
     Eigenvalues ---    0.16000   0.19472   0.21968   0.33970   0.34608
     Eigenvalues ---    0.35228   0.35310   0.35316   0.36653   0.41844
     Eigenvalues ---    0.56768
 RFO step:  Lambda=-3.89840171D-04 EMin= 7.20962304D-03
 Quartic linear search produced a step of -0.23396.
 Iteration  1 RMS(Cart)=  0.01557098 RMS(Int)=  0.00034186
 Iteration  2 RMS(Cart)=  0.00031561 RMS(Int)=  0.00002433
 Iteration  3 RMS(Cart)=  0.00000004 RMS(Int)=  0.00002433
 Variable       Old X    -DE/DX   Delta X   Delta X   Delta X     New X
                                 (Linear)    (Quad)   (Total)
    R1        2.93458  -0.00838  -0.02189   0.00560  -0.01629   2.91828
    R2        2.07928  -0.00250  -0.00377  -0.00110  -0.00488   2.07441
    R3        2.07925  -0.00248  -0.00376  -0.00108  -0.00484   2.07441
    R4        2.71119   0.00273  -0.00869   0.01502   0.00633   2.71752
    R5        2.05137   0.00031   0.00038   0.00024   0.00062   2.05199
    R6        2.05117   0.00024   0.00012   0.00038   0.00050   2.05167
    R7        2.05120   0.00022   0.00010   0.00037   0.00047   2.05167
    R8        1.88228  -0.00512  -0.01784   0.01396  -0.00388   1.87840
    A1        1.90973  -0.00072   0.00297  -0.00469  -0.00166   1.90807
    A2        1.90961  -0.00070   0.00305  -0.00462  -0.00151   1.90810
    A3        1.88765   0.00297  -0.00147   0.01009   0.00862   1.89627
    A4        1.86050   0.00139   0.00463   0.00584   0.01056   1.87105
    A5        1.94807  -0.00151  -0.00456  -0.00352  -0.00808   1.93999
    A6        1.94799  -0.00150  -0.00447  -0.00351  -0.00798   1.94001
    A7        1.93091  -0.00124  -0.00038  -0.00562  -0.00601   1.92490
    A8        1.92863  -0.00123  -0.00058  -0.00514  -0.00574   1.92289
    A9        1.92882  -0.00127  -0.00068  -0.00521  -0.00591   1.92291
   A10        1.89309   0.00127   0.00053   0.00535   0.00586   1.89896
   A11        1.89307   0.00129   0.00053   0.00537   0.00589   1.89896
   A12        1.88816   0.00133   0.00064   0.00587   0.00650   1.89465
   A13        1.77312   0.01324   0.03101   0.02706   0.05807   1.83118
    D1       -1.01557  -0.00044  -0.00463  -0.00100  -0.00561  -1.02118
    D2        1.08130  -0.00046  -0.00460  -0.00131  -0.00588   1.07541
    D3       -3.11254  -0.00041  -0.00461  -0.00066  -0.00525  -3.11779
    D4        1.01683   0.00043   0.00459   0.00074   0.00529   1.02213
    D5        3.11370   0.00040   0.00462   0.00042   0.00502   3.11872
    D6       -1.08013   0.00045   0.00461   0.00107   0.00565  -1.07448
    D7       -3.14105   0.00000   0.00005  -0.00011  -0.00005  -3.14110
    D8       -1.04418  -0.00002   0.00009  -0.00042  -0.00033  -1.04450
    D9        1.04518   0.00003   0.00008   0.00023   0.00031   1.04548
   D10       -3.14099  -0.00001  -0.00003  -0.00019  -0.00022  -3.14121
   D11        1.04051  -0.00013   0.00000   0.00119   0.00121   1.04172
   D12       -1.03950   0.00014   0.00009  -0.00148  -0.00141  -1.04091
         Item               Value     Threshold  Converged?
 Maximum Force            0.013241     0.000450     NO 
 RMS     Force            0.003109     0.000300     NO 
 Maximum Displacement     0.056476     0.001800     NO 
 RMS     Displacement     0.015464     0.001200     NO 
 Predicted change in Energy=-5.334531D-04
 GradGradGradGradGradGradGradGradGradGradGradGradGradGradGradGradGradGrad

 Leave Link  103 at Thu Jan 24 17:19:14 2019, MaxMem=  134217728 cpu:       0.0
 (Enter /home/programs/G09_64/g09/l202.exe)
                          Input orientation:                          
 ---------------------------------------------------------------------
 Center     Atomic      Atomic             Coordinates (Angstroms)
 Number     Number       Type             X           Y           Z
 ---------------------------------------------------------------------
      1          6           0        0.034160    0.562594   -0.000140
      2          6           0        1.243045   -0.398358   -0.000143
      3          1           0        2.171562    0.164637    0.000122
      4          1           0        1.217722   -1.031922    0.881161
      5          1           0        1.218020   -1.031576   -0.881702
      6          1           0        0.086368    1.212032    0.883326
      7          1           0        0.086100    1.211756   -0.883823
      8          8           0       -1.173660   -0.217896    0.000180
      9          1           0       -1.909903    0.449933   -0.000196
 ---------------------------------------------------------------------
                    Distance matrix (angstroms):
                    1          2          3          4          5
     1  C    0.000000
     2  C    1.544290   0.000000
     3  H    2.174134   1.085868   0.000000
     4  H    2.172555   1.085699   1.765728   0.000000
     5  H    2.172568   1.085696   1.765724   1.762863   0.000000
     6  H    1.097729   2.170662   2.495019   2.513026   3.070787
     7  H    1.097728   2.170687   2.495390   3.070804   2.512725
     8  O    1.438052   2.423433   3.367023   2.675346   2.675803
     9  H    1.947324   3.265069   4.091424   3.571376   3.571530
                    6          7          8          9
     6  H    0.000000
     7  H    1.767150   0.000000
     8  O    2.100550   2.100562   0.000000
     9  H    2.312251   2.311969   0.994007   0.000000
 Symmetry turned off by external request.
 Stoichiometry    C2H6O
 Framework group  C1[X(C2H6O)]
 Deg. of freedom    21
 Full point group                 C1      NOp   1
 Rotational constants (GHZ):     34.9861832      9.0825925      7.9202535
 Leave Link  202 at Thu Jan 24 17:19:14 2019, MaxMem=  134217728 cpu:       0.0
 (Enter /home/programs/G09_64/g09/l301.exe)
 Standard basis: STO-3G (5D, 7F)
 Ernie: Thresh=  0.10000D-02 Tol=  0.10000D-05 Strict=F.
 Integral buffers will be    131072 words long.
 Raffenetti 1 integral format.
 Two-electron integral symmetry is turned off.
    21 basis functions,    63 primitive gaussians,    21 cartesian basis functions
    13 alpha electrons       13 beta electrons
       nuclear repulsion energy        80.9335374420 Hartrees.
 IExCor=    0 DFT=F Ex=HF Corr=None ExCW=0 ScaHFX=  1.000000
 ScaDFX=  1.000000  1.000000  1.000000  1.000000 ScalE2=  1.000000  1.000000
 IRadAn=      0 IRanWt=     -1 IRanGd=            0 ICorTp=0
 NAtoms=    9 NActive=    9 NUniq=    9 SFac= 1.00D+00 NAtFMM=   50 NAOKFM=F Big=F
 Leave Link  301 at Thu Jan 24 17:19:14 2019, MaxMem=  134217728 cpu:       0.1
 (Enter /home/programs/G09_64/g09/l302.exe)
 NPDir=0 NMtPBC=     1 NCelOv=     1 NCel=       1 NClECP=     1 NCelD=      1
         NCelK=      1 NCelE2=     1 NClLst=     1 CellRange=     0.0.
 One-electron integrals computed using PRISM.
 NBasis=    21 RedAO= T  NBF=    21
 NBsUse=    21 1.00D-06 NBFU=    21
 Leave Link  302 at Thu Jan 24 17:19:15 2019, MaxMem=  134217728 cpu:       0.1
 (Enter /home/programs/G09_64/g09/l303.exe)
 DipDrv:  MaxL=1.
 Leave Link  303 at Thu Jan 24 17:19:15 2019, MaxMem=  134217728 cpu:       0.0
 (Enter /home/programs/G09_64/g09/l401.exe)
 Initial guess read from the read-write file.
 B after Tr=     0.000000    0.000000    0.000000
         Rot=    1.000000    0.000000    0.000000    0.000000 Ang=   0.00 deg.
 Guess basis will be translated and rotated to current coordinates.
 Generating alternative initial guess.
 Harris functional with IExCor=  205 diagonalized for initial guess.
 ExpMin= 1.69D-01 ExpMax= 1.31D+02 ExpMxC= 1.31D+02 IAcc=1 IRadAn=         1 AccDes= 0.00D+00
 HarFok:  IExCor=  205 AccDes= 0.00D+00 IRadAn=         1 IDoV= 1
 ScaDFX=  1.000000  1.000000  1.000000  1.000000
 FoFCou: FMM=F IPFlag=           0 FMFlag=      100000 FMFlg1=           0
         NFxFlg=           0 DoJE=T BraDBF=F KetDBF=T FulRan=T
         Omega=  0.000000  0.000000  1.000000  0.000000  0.000000 ICntrl=     500 IOpCl=  0
         NMat0=    1 NMatS0=    1 NMatT0=    0 NMatD0=    1 NMtDS0=    0 NMtDT0=    0
         I1Cent=           4 NGrid=           0.
 Symmetry not used in FoFCou.
 Harris En= -152.346436393251    
 Leave Link  401 at Thu Jan 24 17:19:15 2019, MaxMem=  134217728 cpu:       0.3
 (Enter /home/programs/G09_64/g09/l502.exe)
 Closed shell SCF:
 Requested convergence on RMS density matrix=1.00D-08 within 128 cycles.
 Requested convergence on MAX density matrix=1.00D-06.
 Requested convergence on             energy=1.00D-06.
 No special actions if energy rises.
 Using DIIS extrapolation, IDIIS=  1040.
 Two-electron integral symmetry not used.
 Keep R1 ints in memory in canonical form, NReq=846549.
 IEnd=       19739 IEndB=       19739 NGot=   134217728 MDV=   134188268
 LenX=   134188268 LenY=   134187386
 Symmetry not used in FoFDir.
 MinBra= 0 MaxBra= 1 Meth= 1.
 IRaf=       0 NMat=   1 IRICut=       1 DoRegI=T DoRafI=F ISym2E= 0 JSym2E=0.

 Cycle   1  Pass 1  IDiag  1:
 E= -152.132403375944    
 DIIS: error= 1.51D-03 at cycle   1 NSaved=   1.
 NSaved= 1 IEnMin= 1 EnMin= -152.132403375944     IErMin= 1 ErrMin= 1.51D-03
 ErrMax= 1.51D-03 EMaxC= 1.00D-01 BMatC= 7.44D-05 BMatP= 7.44D-05
 IDIUse=3 WtCom= 9.85D-01 WtEn= 1.51D-02
 Coeff-Com:  0.100D+01
 Coeff-En:   0.100D+01
 Coeff:      0.100D+01
 Gap=     0.910 Goal=   None    Shift=    0.000
 GapD=    0.910 DampG=2.000 DampE=1.000 DampFc=2.0000 IDamp=-1.
 RMSDP=7.63D-04 MaxDP=5.24D-03              OVMax= 0.00D+00

 Cycle   2  Pass 1  IDiag  1:
 E= -152.132566112702     Delta-E=       -0.000162736758 Rises=F Damp=F
 DIIS: error= 6.28D-04 at cycle   2 NSaved=   2.
 NSaved= 2 IEnMin= 2 EnMin= -152.132566112702     IErMin= 2 ErrMin= 6.28D-04
 ErrMax= 6.28D-04 EMaxC= 1.00D-01 BMatC= 9.37D-06 BMatP= 7.44D-05
 IDIUse=3 WtCom= 9.94D-01 WtEn= 6.28D-03
 Coeff-Com: -0.384D+00 0.138D+01
 Coeff-En:   0.000D+00 0.100D+01
 Coeff:     -0.381D+00 0.138D+01
 Gap=     0.908 Goal=   None    Shift=    0.000
 RMSDP=3.81D-04 MaxDP=2.49D-03 DE=-1.63D-04 OVMax= 0.00D+00

 Cycle   3  Pass 1  IDiag  1:
 E= -152.132591894123     Delta-E=       -0.000025781421 Rises=F Damp=F
 DIIS: error= 1.39D-04 at cycle   3 NSaved=   3.
 NSaved= 3 IEnMin= 3 EnMin= -152.132591894123     IErMin= 3 ErrMin= 1.39D-04
 ErrMax= 1.39D-04 EMaxC= 1.00D-01 BMatC= 3.16D-07 BMatP= 9.37D-06
 IDIUse=3 WtCom= 9.99D-01 WtEn= 1.39D-03
 Coeff-Com: -0.276D-01-0.718D-01 0.110D+01
 Coeff-En:   0.000D+00 0.000D+00 0.100D+01
 Coeff:     -0.276D-01-0.717D-01 0.110D+01
 Gap=     0.909 Goal=   None    Shift=    0.000
 RMSDP=7.61D-05 MaxDP=6.82D-04 DE=-2.58D-05 OVMax= 0.00D+00

 Cycle   4  Pass 1  IDiag  1:
 E= -152.132592808633     Delta-E=       -0.000000914510 Rises=F Damp=F
 DIIS: error= 3.32D-05 at cycle   4 NSaved=   4.
 NSaved= 4 IEnMin= 4 EnMin= -152.132592808633     IErMin= 4 ErrMin= 3.32D-05
 ErrMax= 3.32D-05 EMaxC= 1.00D-01 BMatC= 1.64D-08 BMatP= 3.16D-07
 IDIUse=1 WtCom= 1.00D+00 WtEn= 0.00D+00
 Coeff-Com:  0.182D-01-0.504D-01-0.115D+00 0.115D+01
 Coeff:      0.182D-01-0.504D-01-0.115D+00 0.115D+01
 Gap=     0.909 Goal=   None    Shift=    0.000
 RMSDP=1.53D-05 MaxDP=1.19D-04 DE=-9.15D-07 OVMax= 0.00D+00

 Cycle   5  Pass 1  IDiag  1:
 E= -152.132592850765     Delta-E=       -0.000000042133 Rises=F Damp=F
 DIIS: error= 4.77D-06 at cycle   5 NSaved=   5.
 NSaved= 5 IEnMin= 5 EnMin= -152.132592850765     IErMin= 5 ErrMin= 4.77D-06
 ErrMax= 4.77D-06 EMaxC= 1.00D-01 BMatC= 8.09D-10 BMatP= 1.64D-08
 IDIUse=1 WtCom= 1.00D+00 WtEn= 0.00D+00
 Coeff-Com:  0.222D-03 0.698D-02-0.470D-01-0.870D-01 0.113D+01
 Coeff:      0.222D-03 0.698D-02-0.470D-01-0.870D-01 0.113D+01
 Gap=     0.909 Goal=   None    Shift=    0.000
 RMSDP=3.56D-06 MaxDP=3.10D-05 DE=-4.21D-08 OVMax= 0.00D+00

 Cycle   6  Pass 1  IDiag  1:
 E= -152.132592852965     Delta-E=       -0.000000002199 Rises=F Damp=F
 DIIS: error= 1.24D-06 at cycle   6 NSaved=   6.
 NSaved= 6 IEnMin= 6 EnMin= -152.132592852965     IErMin= 6 ErrMin= 1.24D-06
 ErrMax= 1.24D-06 EMaxC= 1.00D-01 BMatC= 4.03D-11 BMatP= 8.09D-10
 IDIUse=1 WtCom= 1.00D+00 WtEn= 0.00D+00
 Coeff-Com: -0.699D-03 0.717D-03 0.135D-01-0.415D-01-0.164D+00 0.119D+01
 Coeff:     -0.699D-03 0.717D-03 0.135D-01-0.415D-01-0.164D+00 0.119D+01
 Gap=     0.909 Goal=   None    Shift=    0.000
 RMSDP=8.17D-07 MaxDP=5.40D-06 DE=-2.20D-09 OVMax= 0.00D+00

 Cycle   7  Pass 1  IDiag  1:
 E= -152.132592853074     Delta-E=       -0.000000000109 Rises=F Damp=F
 DIIS: error= 2.67D-07 at cycle   7 NSaved=   7.
 NSaved= 7 IEnMin= 7 EnMin= -152.132592853074     IErMin= 7 ErrMin= 2.67D-07
 ErrMax= 2.67D-07 EMaxC= 1.00D-01 BMatC= 1.35D-12 BMatP= 4.03D-11
 IDIUse=1 WtCom= 1.00D+00 WtEn= 0.00D+00
 Coeff-Com:  0.125D-03-0.528D-03 0.149D-03 0.967D-02-0.187D-01-0.202D+00
 Coeff-Com:  0.121D+01
 Coeff:      0.125D-03-0.528D-03 0.149D-03 0.967D-02-0.187D-01-0.202D+00
 Coeff:      0.121D+01
 Gap=     0.909 Goal=   None    Shift=    0.000
 RMSDP=1.61D-07 MaxDP=1.05D-06 DE=-1.09D-10 OVMax= 0.00D+00

 Cycle   8  Pass 1  IDiag  1:
 E= -152.132592853077     Delta-E=       -0.000000000004 Rises=F Damp=F
 DIIS: error= 2.86D-08 at cycle   8 NSaved=   8.
 NSaved= 8 IEnMin= 8 EnMin= -152.132592853077     IErMin= 8 ErrMin= 2.86D-08
 ErrMax= 2.86D-08 EMaxC= 1.00D-01 BMatC= 2.70D-14 BMatP= 1.35D-12
 IDIUse=1 WtCom= 1.00D+00 WtEn= 0.00D+00
 Coeff-Com:  0.122D-05 0.367D-04-0.256D-03-0.196D-03 0.501D-02-0.291D-02
 Coeff-Com: -0.121D+00 0.112D+01
 Coeff:      0.122D-05 0.367D-04-0.256D-03-0.196D-03 0.501D-02-0.291D-02
 Coeff:     -0.121D+00 0.112D+01
 Gap=     0.909 Goal=   None    Shift=    0.000
 RMSDP=1.68D-08 MaxDP=8.21D-08 DE=-3.52D-12 OVMax= 0.00D+00

 Cycle   9  Pass 1  IDiag  1:
 E= -152.132592853078     Delta-E=        0.000000000000 Rises=F Damp=F
 DIIS: error= 5.37D-09 at cycle   9 NSaved=   9.
 NSaved= 9 IEnMin= 9 EnMin= -152.132592853078     IErMin= 9 ErrMin= 5.37D-09
 ErrMax= 5.37D-09 EMaxC= 1.00D-01 BMatC= 1.29D-15 BMatP= 2.70D-14
 IDIUse=1 WtCom= 1.00D+00 WtEn= 0.00D+00
 Coeff-Com: -0.662D-05 0.278D-04-0.481D-05-0.519D-03 0.910D-03 0.109D-01
 Coeff-Com: -0.627D-01-0.303D-01 0.108D+01
 Coeff:     -0.662D-05 0.278D-04-0.481D-05-0.519D-03 0.910D-03 0.109D-01
 Coeff:     -0.627D-01-0.303D-01 0.108D+01
 Gap=     0.909 Goal=   None    Shift=    0.000
 RMSDP=3.64D-09 MaxDP=1.89D-08 DE=-3.13D-13 OVMax= 0.00D+00

 SCF Done:  E(RHF) =  -152.132592853     A.U. after    9 cycles
             Convg  =    0.3642D-08             -V/T =  2.0086
 KE= 1.508302400485D+02 PE=-5.192503011979D+02 EE= 1.353539308544D+02
 Leave Link  502 at Thu Jan 24 17:19:15 2019, MaxMem=  134217728 cpu:       0.1
 (Enter /home/programs/G09_64/g09/l701.exe)
 Compute integral first derivatives.
 ... and contract with generalized density number  0.
 Leave Link  701 at Thu Jan 24 17:19:15 2019, MaxMem=  134217728 cpu:       0.2
 (Enter /home/programs/G09_64/g09/l702.exe)
 L702 exits ... SP integral derivatives will be done elsewhere.
 Leave Link  702 at Thu Jan 24 17:19:15 2019, MaxMem=  134217728 cpu:       0.1
 (Enter /home/programs/G09_64/g09/l703.exe)
 Compute integral first derivatives, UseDBF=F ICtDFT=           0.
 Integral derivatives from FoFDir, PRISM(SPDF).
 Calling FoFJK, ICntrl=      2127 FMM=F ISym2X=0 I1Cent= 0 IOpClX= 0 NMat=1 NMatS=1 NMatT=0.
 FoFCou: FMM=F IPFlag=           0 FMFlag=      100000 FMFlg1=         800
         NFxFlg=           0 DoJE=F BraDBF=F KetDBF=F FulRan=T
         Omega=  0.000000  0.000000  1.000000  0.000000  0.000000 ICntrl=    2127 IOpCl=  0
         NMat0=    1 NMatS0=    1 NMatT0=    0 NMatD0=    1 NMtDS0=    0 NMtDT0=    0
         I1Cent=           0 NGrid=           0.
 Symmetry not used in FoFCou.
 Leave Link  703 at Thu Jan 24 17:19:15 2019, MaxMem=  134217728 cpu:       0.1
 (Enter /home/programs/G09_64/g09/l716.exe)
 Dipole        = 5.34153995D-02 5.59509169D-01-2.95934296D-04
 -------------------------------------------------------------------
 Center     Atomic                   Forces (Hartrees/Bohr)
 Number     Number              X              Y              Z
 -------------------------------------------------------------------
      1        6          -0.001902652    0.000656681    0.000003299
      2        6          -0.002637079    0.000055732   -0.000001333
      3        1          -0.000345856    0.000252018   -0.000001162
      4        1           0.000230442   -0.000071070   -0.000143603
      5        1           0.000229765   -0.000075029    0.000143911
      6        1          -0.000188439   -0.000152286   -0.000178876
      7        1          -0.000184304   -0.000154557    0.000179830
      8        8          -0.000183970   -0.000180907   -0.000005194
      9        1           0.004982093   -0.000330581    0.000003127
 -------------------------------------------------------------------
 Cartesian Forces:  Max     0.004982093 RMS     0.001163133
 Leave Link  716 at Thu Jan 24 17:19:15 2019, MaxMem=  134217728 cpu:       0.1
 (Enter /home/programs/G09_64/g09/l103.exe)

 GradGradGradGradGradGradGradGradGradGradGradGradGradGradGradGradGradGrad
 Berny optimization.
 Using GEDIIS/GDIIS optimizer.
 Internal  Forces:  Max     0.005827531 RMS     0.001495138
 Search for a local minimum.
 Step number   3 out of a maximum of   43
 All quantities printed in internal units (Hartrees-Bohrs-Radians)
 RMS Force = .14951D-02 SwitMx=.10000D-02 MixMth= 1
 Mixed Optimization -- RFO/linear search
 Update second derivatives using D2CorX and points    1    2    3
 DE= -3.75D-04 DEPred=-5.33D-04 R= 7.03D-01
 SS=  1.41D+00  RLast= 6.68D-02 DXNew= 8.4853D-01 2.0030D-01
 Trust test= 7.03D-01 RLast= 6.68D-02 DXMaxT set to 5.05D-01
 ITU=  1  1  0
 Use linear search instead of GDIIS.
     Eigenvalues ---    0.00721   0.01493   0.05436   0.05890   0.05908
     Eigenvalues ---    0.06160   0.11144   0.13705   0.15651   0.16000
     Eigenvalues ---    0.16006   0.21100   0.29403   0.33106   0.34608
     Eigenvalues ---    0.34909   0.35270   0.35316   0.35367   0.47969
     Eigenvalues ---    0.58066
 RFO step:  Lambda=-1.02169900D-04 EMin= 7.20961215D-03
 Quartic linear search produced a step of -0.23702.
 Iteration  1 RMS(Cart)=  0.00695190 RMS(Int)=  0.00003176
 Iteration  2 RMS(Cart)=  0.00002636 RMS(Int)=  0.00000351
 Iteration  3 RMS(Cart)=  0.00000000 RMS(Int)=  0.00000351
 Variable       Old X    -DE/DX   Delta X   Delta X   Delta X     New X
                                 (Linear)    (Quad)   (Total)
    R1        2.91828  -0.00208   0.00386  -0.01095  -0.00709   2.91120
    R2        2.07441  -0.00024   0.00116  -0.00235  -0.00120   2.07321
    R3        2.07441  -0.00024   0.00115  -0.00234  -0.00119   2.07321
    R4        2.71752  -0.00375  -0.00150  -0.00397  -0.00547   2.71206
    R5        2.05199  -0.00017  -0.00015  -0.00009  -0.00024   2.05176
    R6        2.05167  -0.00008  -0.00012   0.00003  -0.00009   2.05158
    R7        2.05167  -0.00008  -0.00011   0.00002  -0.00009   2.05158
    R8        1.87840  -0.00391   0.00092  -0.00676  -0.00584   1.87256
    A1        1.90807   0.00059   0.00039   0.00157   0.00195   1.91002
    A2        1.90810   0.00059   0.00036   0.00159   0.00194   1.91004
    A3        1.89627  -0.00184  -0.00204  -0.00314  -0.00518   1.89108
    A4        1.87105  -0.00020  -0.00250   0.00475   0.00225   1.87330
    A5        1.93999   0.00046   0.00192  -0.00230  -0.00038   1.93961
    A6        1.94001   0.00046   0.00189  -0.00227  -0.00038   1.93963
    A7        1.92490  -0.00074   0.00143  -0.00580  -0.00437   1.92053
    A8        1.92289   0.00044   0.00136   0.00007   0.00143   1.92432
    A9        1.92291   0.00044   0.00140   0.00002   0.00142   1.92433
   A10        1.89896   0.00007  -0.00139   0.00194   0.00056   1.89951
   A11        1.89896   0.00007  -0.00140   0.00195   0.00056   1.89952
   A12        1.89465  -0.00029  -0.00154   0.00199   0.00045   1.89510
   A13        1.83118  -0.00583  -0.01376  -0.00385  -0.01761   1.81357
    D1       -1.02118  -0.00022   0.00133  -0.00389  -0.00257  -1.02375
    D2        1.07541  -0.00032   0.00139  -0.00514  -0.00375   1.07166
    D3       -3.11779  -0.00012   0.00124  -0.00262  -0.00138  -3.11917
    D4        1.02213   0.00022  -0.00125   0.00364   0.00239   1.02452
    D5        3.11872   0.00012  -0.00119   0.00239   0.00120   3.11992
    D6       -1.07448   0.00032  -0.00134   0.00491   0.00357  -1.07091
    D7       -3.14110   0.00000   0.00001  -0.00010  -0.00009  -3.14119
    D8       -1.04450  -0.00010   0.00008  -0.00136  -0.00128  -1.04578
    D9        1.04548   0.00010  -0.00007   0.00116   0.00109   1.04657
   D10       -3.14121   0.00000   0.00005  -0.00013  -0.00008  -3.14129
   D11        1.04172   0.00018  -0.00029   0.00137   0.00108   1.04280
   D12       -1.04091  -0.00018   0.00033  -0.00159  -0.00125  -1.04216
         Item               Value     Threshold  Converged?
 Maximum Force            0.005828     0.000450     NO 
 RMS     Force            0.001495     0.000300     NO 
 Maximum Displacement     0.031610     0.001800     NO 
 RMS     Displacement     0.006958     0.001200     NO 
 Predicted change in Energy=-9.006379D-05
 GradGradGradGradGradGradGradGradGradGradGradGradGradGradGradGradGradGrad

 Leave Link  103 at Thu Jan 24 17:19:15 2019, MaxMem=  134217728 cpu:       0.0
 (Enter /home/programs/G09_64/g09/l202.exe)
                          Input orientation:                          
 ---------------------------------------------------------------------
 Center     Atomic      Atomic             Coordinates (Angstroms)
 Number     Number       Type             X           Y           Z
 ---------------------------------------------------------------------
      1          6           0        0.033902    0.561909   -0.000140
      2          6           0        1.238816   -0.398008   -0.000143
      3          1           0        2.165369    0.167976    0.000074
      4          1           0        1.214796   -1.031362    0.881289
      5          1           0        1.215033   -1.031080   -0.881780
      6          1           0        0.083583    1.210146    0.883569
      7          1           0        0.083372    1.209922   -0.884024
      8          8           0       -1.168280   -0.221953    0.000119
      9          1           0       -1.893176    0.453648   -0.000181
 ---------------------------------------------------------------------
                    Distance matrix (angstroms):
                    1          2          3          4          5
     1  C    0.000000
     2  C    1.540538   0.000000
     3  H    2.167564   1.085743   0.000000
     4  H    2.170240   1.085650   1.765938   0.000000
     5  H    2.170247   1.085647   1.765939   1.763070   0.000000
     6  H    1.097096   2.168333   2.490083   2.510778   3.069158
     7  H    1.097096   2.168349   2.490380   3.069171   2.510528
     8  O    1.435159   2.413526   3.356375   2.666581   2.666948
     9  H    1.930117   3.245719   4.068586   3.555522   3.555643
                    6          7          8          9
     6  H    0.000000
     7  H    1.767593   0.000000
     8  O    2.097272   2.097286   0.000000
     9  H    2.293660   2.293440   0.990915   0.000000
 Symmetry turned off by external request.
 Stoichiometry    C2H6O
 Framework group  C1[X(C2H6O)]
 Deg. of freedom    21
 Full point group                 C1      NOp   1
 Rotational constants (GHZ):     34.9320632      9.1559887      7.9734835
 Leave Link  202 at Thu Jan 24 17:19:15 2019, MaxMem=  134217728 cpu:       0.0
 (Enter /home/programs/G09_64/g09/l301.exe)
 Standard basis: STO-3G (5D, 7F)
 Ernie: Thresh=  0.10000D-02 Tol=  0.10000D-05 Strict=F.
 Integral buffers will be    131072 words long.
 Raffenetti 1 integral format.
 Two-electron integral symmetry is turned off.
    21 basis functions,    63 primitive gaussians,    21 cartesian basis functions
    13 alpha electrons       13 beta electrons
       nuclear repulsion energy        81.1181702219 Hartrees.
 IExCor=    0 DFT=F Ex=HF Corr=None ExCW=0 ScaHFX=  1.000000
 ScaDFX=  1.000000  1.000000  1.000000  1.000000 ScalE2=  1.000000  1.000000
 IRadAn=      0 IRanWt=     -1 IRanGd=            0 ICorTp=0
 NAtoms=    9 NActive=    9 NUniq=    9 SFac= 1.00D+00 NAtFMM=   50 NAOKFM=F Big=F
 Leave Link  301 at Thu Jan 24 17:19:16 2019, MaxMem=  134217728 cpu:       0.1
 (Enter /home/programs/G09_64/g09/l302.exe)
 NPDir=0 NMtPBC=     1 NCelOv=     1 NCel=       1 NClECP=     1 NCelD=      1
         NCelK=      1 NCelE2=     1 NClLst=     1 CellRange=     0.0.
 One-electron integrals computed using PRISM.
 NBasis=    21 RedAO= T  NBF=    21
 NBsUse=    21 1.00D-06 NBFU=    21
 Leave Link  302 at Thu Jan 24 17:19:16 2019, MaxMem=  134217728 cpu:       0.1
 (Enter /home/programs/G09_64/g09/l303.exe)
 DipDrv:  MaxL=1.
 Leave Link  303 at Thu Jan 24 17:19:16 2019, MaxMem=  134217728 cpu:       0.0
 (Enter /home/programs/G09_64/g09/l401.exe)
 Initial guess read from the read-write file.
 B after Tr=     0.000000    0.000000    0.000000
         Rot=    1.000000    0.000000    0.000000    0.000000 Ang=   0.00 deg.
 Guess basis will be translated and rotated to current coordinates.
 Generating alternative initial guess.
 Harris functional with IExCor=  205 diagonalized for initial guess.
 ExpMin= 1.69D-01 ExpMax= 1.31D+02 ExpMxC= 1.31D+02 IAcc=1 IRadAn=         1 AccDes= 0.00D+00
 HarFok:  IExCor=  205 AccDes= 0.00D+00 IRadAn=         1 IDoV= 1
 ScaDFX=  1.000000  1.000000  1.000000  1.000000
 FoFCou: FMM=F IPFlag=           0 FMFlag=      100000 FMFlg1=           0
         NFxFlg=           0 DoJE=T BraDBF=F KetDBF=T FulRan=T
         Omega=  0.000000  0.000000  1.000000  0.000000  0.000000 ICntrl=     500 IOpCl=  0
         NMat0=    1 NMatS0=    1 NMatT0=    0 NMatD0=    1 NMtDS0=    0 NMtDT0=    0
         I1Cent=           4 NGrid=           0.
 Symmetry not used in FoFCou.
 Harris En= -152.346401008341    
 Leave Link  401 at Thu Jan 24 17:19:16 2019, MaxMem=  134217728 cpu:       0.2
 (Enter /home/programs/G09_64/g09/l502.exe)
 Closed shell SCF:
 Requested convergence on RMS density matrix=1.00D-08 within 128 cycles.
 Requested convergence on MAX density matrix=1.00D-06.
 Requested convergence on             energy=1.00D-06.
 No special actions if energy rises.
 Using DIIS extrapolation, IDIIS=  1040.
 Two-electron integral symmetry not used.
 Keep R1 ints in memory in canonical form, NReq=846549.
 IEnd=       19739 IEndB=       19739 NGot=   134217728 MDV=   134188268
 LenX=   134188268 LenY=   134187386
 Symmetry not used in FoFDir.
 MinBra= 0 MaxBra= 1 Meth= 1.
 IRaf=       0 NMat=   1 IRICut=       1 DoRegI=T DoRafI=F ISym2E= 0 JSym2E=0.

 Cycle   1  Pass 1  IDiag  1:
 E= -152.132658467301    
 DIIS: error= 4.90D-04 at cycle   1 NSaved=   1.
 NSaved= 1 IEnMin= 1 EnMin= -152.132658467301     IErMin= 1 ErrMin= 4.90D-04
 ErrMax= 4.90D-04 EMaxC= 1.00D-01 BMatC= 6.26D-06 BMatP= 6.26D-06
 IDIUse=3 WtCom= 9.95D-01 WtEn= 4.90D-03
 Coeff-Com:  0.100D+01
 Coeff-En:   0.100D+01
 Coeff:      0.100D+01
 Gap=     0.913 Goal=   None    Shift=    0.000
 RMSDP=1.86D-04 MaxDP=1.02D-03              OVMax= 0.00D+00

 Cycle   2  Pass 1  IDiag  1:
 E= -152.132669476430     Delta-E=       -0.000011009129 Rises=F Damp=F
 DIIS: error= 1.69D-04 at cycle   2 NSaved=   2.
 NSaved= 2 IEnMin= 2 EnMin= -152.132669476430     IErMin= 2 ErrMin= 1.69D-04
 ErrMax= 1.69D-04 EMaxC= 1.00D-01 BMatC= 5.96D-07 BMatP= 6.26D-06
 IDIUse=3 WtCom= 9.98D-01 WtEn= 1.69D-03
 Coeff-Com: -0.290D+00 0.129D+01
 Coeff-En:   0.000D+00 0.100D+01
 Coeff:     -0.290D+00 0.129D+01
 Gap=     0.913 Goal=   None    Shift=    0.000
 RMSDP=8.75D-05 MaxDP=5.18D-04 DE=-1.10D-05 OVMax= 0.00D+00

 Cycle   3  Pass 1  IDiag  1:
 E= -152.132671065144     Delta-E=       -0.000001588714 Rises=F Damp=F
 DIIS: error= 3.33D-05 at cycle   3 NSaved=   3.
 NSaved= 3 IEnMin= 3 EnMin= -152.132671065144     IErMin= 3 ErrMin= 3.33D-05
 ErrMax= 3.33D-05 EMaxC= 1.00D-01 BMatC= 2.76D-08 BMatP= 5.96D-07
 IDIUse=1 WtCom= 1.00D+00 WtEn= 0.00D+00
 Coeff-Com:  0.769D-02-0.233D+00 0.123D+01
 Coeff:      0.769D-02-0.233D+00 0.123D+01
 Gap=     0.913 Goal=   None    Shift=    0.000
 RMSDP=2.25D-05 MaxDP=1.68D-04 DE=-1.59D-06 OVMax= 0.00D+00

 Cycle   4  Pass 1  IDiag  1:
 E= -152.132671144418     Delta-E=       -0.000000079274 Rises=F Damp=F
 DIIS: error= 8.50D-06 at cycle   4 NSaved=   4.
 NSaved= 4 IEnMin= 4 EnMin= -152.132671144418     IErMin= 4 ErrMin= 8.50D-06
 ErrMax= 8.50D-06 EMaxC= 1.00D-01 BMatC= 9.69D-10 BMatP= 2.76D-08
 IDIUse=1 WtCom= 1.00D+00 WtEn= 0.00D+00
 Coeff-Com:  0.950D-02-0.505D-01 0.323D-01 0.101D+01
 Coeff:      0.950D-02-0.505D-01 0.323D-01 0.101D+01
 Gap=     0.913 Goal=   None    Shift=    0.000
 RMSDP=3.23D-06 MaxDP=2.33D-05 DE=-7.93D-08 OVMax= 0.00D+00

 Cycle   5  Pass 1  IDiag  1:
 E= -152.132671146617     Delta-E=       -0.000000002199 Rises=F Damp=F
 DIIS: error= 1.60D-06 at cycle   5 NSaved=   5.
 NSaved= 5 IEnMin= 5 EnMin= -152.132671146617     IErMin= 5 ErrMin= 1.60D-06
 ErrMax= 1.60D-06 EMaxC= 1.00D-01 BMatC= 6.53D-11 BMatP= 9.69D-10
 IDIUse=1 WtCom= 1.00D+00 WtEn= 0.00D+00
 Coeff-Com: -0.238D-02 0.249D-01-0.823D-01-0.203D+00 0.126D+01
 Coeff:     -0.238D-02 0.249D-01-0.823D-01-0.203D+00 0.126D+01
 Gap=     0.913 Goal=   None    Shift=    0.000
 RMSDP=1.11D-06 MaxDP=9.94D-06 DE=-2.20D-09 OVMax= 0.00D+00

 Cycle   6  Pass 1  IDiag  1:
 E= -152.132671146802     Delta-E=       -0.000000000185 Rises=F Damp=F
 DIIS: error= 2.62D-07 at cycle   6 NSaved=   6.
 NSaved= 6 IEnMin= 6 EnMin= -152.132671146802     IErMin= 6 ErrMin= 2.62D-07
 ErrMax= 2.62D-07 EMaxC= 1.00D-01 BMatC= 1.96D-12 BMatP= 6.53D-11
 IDIUse=1 WtCom= 1.00D+00 WtEn= 0.00D+00
 Coeff-Com:  0.573D-03-0.714D-02 0.275D-01 0.323D-01-0.397D+00 0.134D+01
 Coeff:      0.573D-03-0.714D-02 0.275D-01 0.323D-01-0.397D+00 0.134D+01
 Gap=     0.913 Goal=   None    Shift=    0.000
 RMSDP=1.99D-07 MaxDP=1.40D-06 DE=-1.85D-10 OVMax= 0.00D+00

 Cycle   7  Pass 1  IDiag  1:
 E= -152.132671146808     Delta-E=       -0.000000000006 Rises=F Damp=F
 DIIS: error= 3.70D-08 at cycle   7 NSaved=   7.
 NSaved= 7 IEnMin= 7 EnMin= -152.132671146808     IErMin= 7 ErrMin= 3.70D-08
 ErrMax= 3.70D-08 EMaxC= 1.00D-01 BMatC= 4.42D-14 BMatP= 1.96D-12
 IDIUse=1 WtCom= 1.00D+00 WtEn= 0.00D+00
 Coeff-Com:  0.826D-04-0.898D-03 0.307D-02 0.659D-02-0.434D-01 0.120D-02
 Coeff-Com:  0.103D+01
 Coeff:      0.826D-04-0.898D-03 0.307D-02 0.659D-02-0.434D-01 0.120D-02
 Coeff:      0.103D+01
 Gap=     0.913 Goal=   None    Shift=    0.000
 RMSDP=2.47D-08 MaxDP=1.46D-07 DE=-5.51D-12 OVMax= 0.00D+00

 Cycle   8  Pass 1  IDiag  1:
 E= -152.132671146808     Delta-E=        0.000000000000 Rises=F Damp=F
 DIIS: error= 8.61D-09 at cycle   8 NSaved=   8.
 NSaved= 8 IEnMin= 8 EnMin= -152.132671146808     IErMin= 8 ErrMin= 8.61D-09
 ErrMax= 8.61D-09 EMaxC= 1.00D-01 BMatC= 2.03D-15 BMatP= 4.42D-14
 IDIUse=1 WtCom= 1.00D+00 WtEn= 0.00D+00
 Coeff-Com: -0.383D-04 0.457D-03-0.169D-02-0.255D-02 0.246D-01-0.591D-01
 Coeff-Com: -0.168D+00 0.121D+01
 Coeff:     -0.383D-04 0.457D-03-0.169D-02-0.255D-02 0.246D-01-0.591D-01
 Coeff:     -0.168D+00 0.121D+01
 Gap=     0.913 Goal=   None    Shift=    0.000
 RMSDP=5.32D-09 MaxDP=2.50D-08 DE=-2.56D-13 OVMax= 0.00D+00

 SCF Done:  E(RHF) =  -152.132671147     A.U. after    8 cycles
             Convg  =    0.5321D-08             -V/T =  2.0085
 KE= 1.508448117179D+02 PE=-5.196153748559D+02 EE= 1.355197217692D+02
 Leave Link  502 at Thu Jan 24 17:19:16 2019, MaxMem=  134217728 cpu:       0.1
 (Enter /home/programs/G09_64/g09/l701.exe)
 Compute integral first derivatives.
 ... and contract with generalized density number  0.
 Leave Link  701 at Thu Jan 24 17:19:16 2019, MaxMem=  134217728 cpu:       0.1
 (Enter /home/programs/G09_64/g09/l702.exe)
 L702 exits ... SP integral derivatives will be done elsewhere.
 Leave Link  702 at Thu Jan 24 17:19:16 2019, MaxMem=  134217728 cpu:       0.0
 (Enter /home/programs/G09_64/g09/l703.exe)
 Compute integral first derivatives, UseDBF=F ICtDFT=           0.
 Integral derivatives from FoFDir, PRISM(SPDF).
 Calling FoFJK, ICntrl=      2127 FMM=F ISym2X=0 I1Cent= 0 IOpClX= 0 NMat=1 NMatS=1 NMatT=0.
 FoFCou: FMM=F IPFlag=           0 FMFlag=      100000 FMFlg1=         800
         NFxFlg=           0 DoJE=F BraDBF=F KetDBF=F FulRan=T
         Omega=  0.000000  0.000000  1.000000  0.000000  0.000000 ICntrl=    2127 IOpCl=  0
         NMat0=    1 NMatS0=    1 NMatT0=    0 NMatD0=    1 NMtDS0=    0 NMtDT0=    0
         I1Cent=           0 NGrid=           0.
 Symmetry not used in FoFCou.
 Leave Link  703 at Thu Jan 24 17:19:16 2019, MaxMem=  134217728 cpu:       0.2
 (Enter /home/programs/G09_64/g09/l716.exe)
 Dipole        = 5.34571096D-02 5.62869779D-01-2.36821785D-04
 -------------------------------------------------------------------
 Center     Atomic                   Forces (Hartrees/Bohr)
 Number     Number              X              Y              Z
 -------------------------------------------------------------------
      1        6          -0.000454741   -0.000250147    0.000003108
      2        6           0.000513257    0.000032557    0.000000104
      3        1           0.000247466   -0.000366014   -0.000001544
      4        1           0.000151693   -0.000017756   -0.000139915
      5        1           0.000151997   -0.000021366    0.000139554
      6        1           0.000022945    0.000320768    0.000075755
      7        1           0.000025312    0.000318567   -0.000074828
      8        8          -0.000455309    0.000082134   -0.000004497
[...]
     21  0.382626D-01  0.469211D-02 -0.151066D-01 -0.151092D-01  0.816342D-02
     22  0.655421D-02 -0.731360D-02  0.138092D-01  0.470555D-03  0.339661D-02
     23  0.104829D-01 -0.646793D-02  0.143698D-01 -0.176494D-02  0.921323D-02
     24  0.262368D-02 -0.815953D-02  0.160451D-01 -0.897441D-04 -0.241897D-02
     25 -0.655234D-02  0.731418D-02 -0.470998D-03 -0.138089D-01 -0.339860D-02
     26 -0.262365D-02  0.815985D-02  0.895909D-04 -0.160444D-01  0.241802D-02
     27 -0.104829D-01  0.646825D-02  0.176487D-02 -0.143692D-01 -0.921418D-02
     28  0.000000D+00  0.000000D+00 -0.160829D-01  0.160833D-01  0.000000D+00
     29  0.392875D-02  0.845841D-03 -0.155223D-01  0.138478D-01  0.581605D-02
     30 -0.393047D-02 -0.845757D-03 -0.138470D-01  0.155230D-01 -0.581615D-02
     31 -0.156106D-05  0.000000D+00 -0.104995D-01  0.105001D-01 -0.194534D-05
     32 -0.229471D-01  0.202418D-01  0.282671D-01  0.162409D-01 -0.985202D-03
     33  0.229448D-01 -0.202422D-01 -0.162399D-01 -0.282667D-01  0.985903D-03
               16            17            18            19            20 
     16  0.144110D+00
     17 -0.258465D-01  0.144113D+00
     18 -0.559466D-01  0.161076D-01  0.717661D-01
     19  0.161068D-01 -0.559467D-01  0.132037D-01  0.717693D-01
     20 -0.563265D-01 -0.563262D-01  0.133224D-01  0.133227D-01  0.727207D-01
     21 -0.231860D-02 -0.231735D-02 -0.234030D-02 -0.234085D-02  0.103408D-02
     22 -0.884339D-02  0.469713D-02 -0.906447D-02  0.837841D-02  0.144809D-02
     23 -0.200563D-02 -0.762354D-02  0.872823D-02 -0.544353D-03 -0.778690D-02
     24  0.347728D-02 -0.214167D-02 -0.141960D-03 -0.941333D-02  0.106832D-01
     25 -0.469564D-02  0.884251D-02 -0.837854D-02  0.906529D-02 -0.144791D-02
     26  0.214212D-02 -0.347815D-02  0.941416D-02  0.142531D-03 -0.106829D-01
     27  0.762503D-02  0.200372D-02  0.543971D-03 -0.872645D-02  0.778718D-02
     28 -0.384205D-02  0.384210D-02 -0.984739D-02  0.984760D-02  0.000000D+00
     29  0.299571D-02 -0.847856D-02  0.794532D-02  0.924839D-03 -0.923494D-02
     30  0.847862D-02 -0.299669D-02 -0.924871D-03 -0.794414D-02  0.923514D-02
     31 -0.948413D-02  0.948571D-02  0.301185D-02 -0.301110D-02  0.000000D+00
     32  0.382946D-02 -0.565895D-02 -0.462665D-03  0.238612D-02  0.972936D-03
     33  0.565816D-02 -0.382938D-02 -0.238601D-02  0.462326D-03 -0.972658D-03
               21            22            23            24            25 
     21  0.310513D+00
     22  0.106915D-02  0.217075D-01
     23  0.190571D-02  0.695400D-02  0.224264D-01
     24  0.232175D-03  0.610726D-02  0.660595D-02  0.207328D-01
     25 -0.106826D-02  0.471505D-02 -0.108851D-01 -0.100381D-01  0.217069D-01
     26 -0.231703D-03 -0.100385D-01  0.458726D-02 -0.953936D-02  0.610668D-02
     27 -0.190524D-02 -0.108852D-01 -0.112332D-01  0.458746D-02  0.695376D-02
     28  0.000000D+00  0.433158D-02 -0.103718D-01 -0.103718D-01  0.433137D-02
     29  0.835774D-03 -0.104220D-01  0.510063D-02 -0.987306D-02 -0.112688D-01
     30 -0.837760D-03 -0.112687D-01 -0.107198D-01  0.425376D-02 -0.104217D-01
     31 -0.236745D-05  0.382730D-02  0.150249D-02  0.150279D-02  0.382794D-02
     32 -0.702762D-02 -0.164227D-02 -0.398410D-03 -0.356875D-03 -0.186449D-02
     33  0.702295D-02 -0.186498D-02 -0.579682D-03 -0.621128D-03 -0.164249D-02
               26            27            28            29            30 
     26  0.207324D-01
     27  0.660582D-02  0.224265D-01
     28 -0.103720D-01 -0.103720D-01  0.211661D-01
     29  0.425378D-02 -0.107199D-01  0.646275D-02  0.219853D-01
     30 -0.987284D-02  0.510074D-02  0.646276D-02  0.701166D-02  0.219852D-01
     31  0.150312D-02  0.150342D-02 -0.322457D-02 -0.554939D-02 -0.554909D-02
     32 -0.620628D-03 -0.579093D-03  0.900996D-03  0.214486D-02  0.218639D-02
     33 -0.357195D-03 -0.398641D-03  0.900543D-03  0.218584D-02  0.214439D-02
               31            32            33 
     31  0.245017D-01
     32 -0.958142D-02  0.345612D-01
     33 -0.958186D-02 -0.203291D-01  0.345608D-01
 Leave Link  716 at Thu Jan 24 17:19:20 2019, MaxMem=  134217728 cpu:       0.1
 (Enter /home/programs/G09_64/g09/l103.exe)

 GradGradGradGradGradGradGradGradGradGradGradGradGradGradGradGradGradGrad
 Berny optimization.
 Red2BG is reusing G-inverse.
 Internal  Forces:  Max     0.000253810 RMS     0.000065074
 Search for a local minimum.
 Step number   1 out of a maximum of    2
 All quantities printed in internal units (Hartrees-Bohrs-Radians)
 Second derivative matrix not updated -- analytic derivatives used.
 ITU=  0
     Eigenvalues ---    0.00201   0.00484   0.06565   0.06640   0.07308
     Eigenvalues ---    0.08003   0.14177   0.16129   0.18020   0.18460
     Eigenvalues ---    0.22746   0.25016   0.32437   0.41535   0.45210
     Eigenvalues ---    0.45997   0.47351   0.48767   0.48806   0.54621
     Eigenvalues ---    0.64765
 Angle between quadratic step and forces=  49.70 degrees.
 Linear search not attempted -- first point.
 Iteration  1 RMS(Cart)=  0.00031768 RMS(Int)=  0.00000006
 Iteration  2 RMS(Cart)=  0.00000006 RMS(Int)=  0.00000003
 Variable       Old X    -DE/DX   Delta X   Delta X   Delta X     New X
                                 (Linear)    (Quad)   (Total)
    R1        2.91367  -0.00016   0.00000  -0.00029  -0.00029   2.91338
    R2        2.07381   0.00001   0.00000   0.00001   0.00001   2.07382
    R3        2.07381   0.00001   0.00000   0.00001   0.00001   2.07382
    R4        2.71266   0.00005   0.00000   0.00010   0.00010   2.71276
    R5        2.05179   0.00000   0.00000   0.00000   0.00000   2.05179
    R6        2.05132   0.00006   0.00000   0.00012   0.00012   2.05144
    R7        2.05132   0.00006   0.00000   0.00012   0.00012   2.05144
    R8        1.87226   0.00025   0.00000   0.00040   0.00040   1.87266
    A1        1.91025  -0.00003   0.00000  -0.00019  -0.00019   1.91006
    A2        1.91025  -0.00003   0.00000  -0.00019  -0.00019   1.91006
    A3        1.89245  -0.00005   0.00000  -0.00017  -0.00017   1.89228
    A4        1.87130   0.00003   0.00000   0.00025   0.00025   1.87156
    A5        1.93970   0.00004   0.00000   0.00015   0.00015   1.93985
    A6        1.93971   0.00004   0.00000   0.00015   0.00015   1.93985
    A7        1.92369  -0.00011   0.00000  -0.00054  -0.00054   1.92315
    A8        1.92493  -0.00003   0.00000  -0.00012  -0.00012   1.92481
    A9        1.92496  -0.00004   0.00000  -0.00016  -0.00016   1.92481
   A10        1.89798   0.00007   0.00000   0.00029   0.00029   1.89827
   A11        1.89798   0.00007   0.00000   0.00029   0.00029   1.89827
   A12        1.89364   0.00005   0.00000   0.00027   0.00027   1.89392
   A13        1.81435   0.00001   0.00000   0.00005   0.00005   1.81441
    D1       -1.02276   0.00000   0.00000  -0.00034  -0.00034  -1.02309
    D2        1.07316  -0.00001   0.00000  -0.00041  -0.00041   1.07275
    D3       -3.11869   0.00001   0.00000  -0.00025  -0.00025  -3.11894
    D4        1.02335   0.00000   0.00000  -0.00025  -0.00025   1.02309
    D5        3.11926  -0.00001   0.00000  -0.00032  -0.00032   3.11894
    D6       -1.07259   0.00001   0.00000  -0.00017  -0.00017  -1.07275
    D7       -3.14129   0.00000   0.00000  -0.00030  -0.00030   3.14159
    D8       -1.04538  -0.00001   0.00000  -0.00037  -0.00037  -1.04575
    D9        1.04596   0.00001   0.00000  -0.00021  -0.00021   1.04575
   D10       -3.14136   0.00000   0.00000  -0.00023  -0.00023  -3.14159
   D11        1.04151   0.00004   0.00000   0.00002   0.00002   1.04153
   D12       -1.04104  -0.00004   0.00000  -0.00049  -0.00049  -1.04153
         Item               Value     Threshold  Converged?
 Maximum Force            0.000254     0.000450     YES
 RMS     Force            0.000065     0.000300     YES
 Maximum Displacement     0.000795     0.001800     YES
 RMS     Displacement     0.000318     0.001200     YES
 Predicted change in Energy=-1.782466D-07
 Optimization completed.
    -- Stationary point found.
                           ----------------------------
                           !   Optimized Parameters   !
                           ! (Angstroms and Degrees)  !
 --------------------------                            --------------------------
 ! Name  Definition              Value          Derivative Info.                !
 --------------------------------------------------------------------------------
 ! R1    R(1,2)                  1.5418         -DE/DX =   -0.0002              !
 ! R2    R(1,6)                  1.0974         -DE/DX =    0.0                 !
 ! R3    R(1,7)                  1.0974         -DE/DX =    0.0                 !
 ! R4    R(1,8)                  1.4355         -DE/DX =    0.0                 !
 ! R5    R(2,3)                  1.0858         -DE/DX =    0.0                 !
 ! R6    R(2,4)                  1.0855         -DE/DX =    0.0001              !
 ! R7    R(2,5)                  1.0855         -DE/DX =    0.0001              !
 ! R8    R(8,9)                  0.9908         -DE/DX =    0.0003              !
 ! A1    A(2,1,6)              109.4495         -DE/DX =    0.0                 !
 ! A2    A(2,1,7)              109.4494         -DE/DX =    0.0                 !
 ! A3    A(2,1,8)              108.4295         -DE/DX =   -0.0001              !
 ! A4    A(6,1,7)              107.2178         -DE/DX =    0.0                 !
 ! A5    A(6,1,8)              111.1366         -DE/DX =    0.0                 !
 ! A6    A(7,1,8)              111.1369         -DE/DX =    0.0                 !
 ! A7    A(1,2,3)              110.2193         -DE/DX =   -0.0001              !
 ! A8    A(1,2,4)              110.2904         -DE/DX =    0.0                 !
 ! A9    A(1,2,5)              110.2922         -DE/DX =    0.0                 !
 ! A10   A(3,2,4)              108.7464         -DE/DX =    0.0001              !
 ! A11   A(3,2,5)              108.7464         -DE/DX =    0.0001              !
 ! A12   A(4,2,5)              108.4979         -DE/DX =    0.0                 !
 ! A13   A(1,8,9)              103.9548         -DE/DX =    0.0                 !
 ! D1    D(6,1,2,3)            -58.5996         -DE/DX =    0.0                 !
 ! D2    D(6,1,2,4)             61.4874         -DE/DX =    0.0                 !
 ! D3    D(6,1,2,5)           -178.6878         -DE/DX =    0.0                 !
 ! D4    D(7,1,2,3)             58.6335         -DE/DX =    0.0                 !
 ! D5    D(7,1,2,4)            178.7206         -DE/DX =    0.0                 !
 ! D6    D(7,1,2,5)            -61.4547         -DE/DX =    0.0                 !
 ! D7    D(8,1,2,3)            180.0171         -DE/DX =    0.0                 !
 ! D8    D(8,1,2,4)            -59.8958         -DE/DX =    0.0                 !
 ! D9    D(8,1,2,5)             59.9289         -DE/DX =    0.0                 !
 ! D10   D(2,1,8,9)           -179.9867         -DE/DX =    0.0                 !
 ! D11   D(6,1,8,9)             59.6741         -DE/DX =    0.0                 !
 ! D12   D(7,1,8,9)            -59.6474         -DE/DX =    0.0                 !
 --------------------------------------------------------------------------------
 GradGradGradGradGradGradGradGradGradGradGradGradGradGradGradGradGradGrad

 Leave Link  103 at Thu Jan 24 17:19:20 2019, MaxMem=  134217728 cpu:       0.0
 (Enter /home/programs/G09_64/g09/l9999.exe)
 1\1\GINC-AF2CIQUS\Freq\RHF\STO-3G\C2H6O1\RAMOS\24-Jan-2019\0\\#P Geom=
 AllCheck Guess=TCheck SCRF=Check GenChk RHF/STO-3G Freq\\---\\0,1\C,0.
 0329809399,0.5619013866,-0.000132829\C,1.2396557446,-0.3979057486,-0.0
 001445762\H,2.1675756324,0.1658674744,0.0000184528\H,1.2164378644,-1.0
 318125442,0.8807408643\H,1.2166236369,-1.03160847,-0.8811818787\H,0.08
 25377178,1.2111955136,0.8832002859\H,0.0823820061,1.2110178965,-0.8836
 016813\O,-1.1699397539,-0.2214110706,0.0000560784\H,-1.8948393329,0.45
 39546554,-0.0001702362\\Version=AM64L-G09RevB.01\HF=-152.1326747\RMSD=
 1.093e-09\RMSF=8.201e-05\ZeroPoint=0.0946824\Thermal=0.0987955\Dipole=
 0.0535608,0.5626098,-0.0001762\DipoleDeriv=0.5038641,-0.0041056,0.0000
 115,-0.0048836,0.202138,0.000047,0.0000051,0.0000534,0.3287992,-0.0325
 942,-0.0447009,0.000005,-0.0330115,-0.0163879,0.0000149,-0.0000132,-0.
 0000059,-0.0356541,-0.0393477,-0.0164483,-0.0000063,0.0009687,0.003417
 9,-0.0000122,-0.0000025,-0.0000094,0.0416436,0.0193156,0.0271503,-0.00
 5376,0.0195502,0.0071898,0.0328204,0.0108987,0.028032,-0.0010643,0.019
 3057,0.0271614,0.0053804,0.019558,0.0071885,-0.0328142,-0.0108839,-0.0
 280312,-0.0010877,-0.0815013,0.0250742,0.0376778,-0.0286908,-0.0446922
 ,-0.0364192,-0.0036246,-0.0426715,-0.0623307,-0.0814969,0.0250777,-0.0
 376841,-0.0286946,-0.0446749,0.0364089,0.0036328,0.042662,-0.0623408,-
 0.2977739,-0.1864685,0.0000357,-0.1147374,-0.0914581,-0.0001434,0.0000
 362,-0.000113,-0.4864556,-0.0097713,0.1472597,-0.0000438,0.169941,-0.0
 227211,0.0000977,-0.0000486,0.0000836,0.2784903\Polar=16.8115539,-0.97
 85919,12.5724577,0.0003974,-0.0003943,10.9372834\PolarDeriv=1.6531574,
 2.2968099,-0.3431729,-0.0000914,-0.0003037,0.0129975,4.614172,-0.51086
 55,-0.2319798,-0.0002393,-0.0003259,-2.2951545,-0.0007241,-0.0003252,-
 0.0002954,-0.3445469,-2.4828234,0.0004493,-0.6357055,-2.4731973,0.5572
 88,-0.0003319,-0.0002685,-0.0244729,-3.0041168,0.353167,0.3215392,-0.0
 001948,-0.0003836,2.1298282,-0.0003454,-0.0002137,-0.000257,-0.2707713
 ,2.3248466,0.000442,5.5650897,1.4897845,-0.1024304,0.0004626,0.0000848
 ,0.106586,0.8231441,2.0071484,1.9822529,0.0000733,0.0003933,-0.3278342
 ,0.0002423,0.0000686,0.0000808,2.1198416,0.4990318,0.0004864,0.482807,
 -1.0033548,0.0616539,1.870801,-0.1335023,0.0108372,0.3321781,0.3477001
 ,-3.2202501,-0.2709231,2.0016684,-0.6744859,0.2567258,-0.2315364,0.482
 3045,0.3953484,-2.0889183,3.7539039,0.4835361,-1.0030802,0.0616605,-1.
 8710482,0.1336689,0.0109027,0.3321653,0.3480186,-3.2193531,0.2710696,-
 2.0017178,-0.6745146,-0.2566349,0.231721,-0.482156,0.3957853,-2.088625
 ,-3.7548086,0.2297775,1.2098236,0.0071234,1.9646109,-0.0506147,-0.0823
 237,-0.3536683,0.3409924,3.2574675,0.0769456,2.110352,0.6586228,0.2348
 432,0.0309586,0.5077105,0.19775,2.1954064,3.9031409,0.2292627,1.209464
 3,0.0071152,-1.9648229,0.0507073,-0.0823576,-0.3537295,0.3406456,3.256
 5644,-0.0768694,-2.1103544,0.6586391,-0.2346676,-0.0308479,-0.507503,0
 .197561,2.1951031,-3.9038953,-1.2448105,-3.3775445,-0.1101071,0.000937
 ,0.0001707,0.1602875,-4.9470079,-0.7255065,-4.2400459,-0.0000074,0.000
 748,0.5510169,0.0014047,0.0000375,0.0001891,-0.642376,-1.4543378,0.000
 8575,-6.7631144,1.6512945,-0.1391306,-0.0005171,0.0000576,-0.1124567,2
 .5568631,-2.5013001,2.093805,0.0001455,-0.0003799,-0.0261177,-0.000844
 1,0.0001374,-0.0000734,-2.0485922,0.9003166,-0.0005761\HyperPolar=0.30
 93191,11.4114815,0.6543768,3.5869616,-0.0015415,0.0016997,0.0005939,1.
 8497902,-0.0421357,-0.0029279\PG=C01 [X(C2H6O1)]\NImag=0\\0.74120695,0
 .01726833,0.81845152,0.00001738,-0.00001327,0.83360588,-0.22656745,0.0
 9775703,0.00000203,0.77813855,0.10141913,-0.20789827,0.00000154,0.0736
 1409,0.81091757,0.00000005,-0.00000253,-0.12656502,-0.00000532,0.00000
 501,0.86372965,-0.02269852,-0.02232480,-0.00000292,-0.35579433,-0.1751
 1253,-0.00004963,0.36967201,0.02754131,0.02002101,0.00000366,-0.173633
 77,-0.18291862,-0.00003031,0.18273161,0.18364504,0.00000152,-0.0000000
 2,-0.00089770,-0.00005046,-0.00003128,-0.07972936,0.00005207,0.0000340
 0,0.06874918,0.00295439,0.02236577,-0.03336333,-0.07684398,-0.00840364
 ,0.00735617,0.00462082,-0.02048247,0.03501609,0.07062596,-0.00298808,-
 0.01466443,0.02260747,-0.00895105,-0.20869234,0.18219960,0.00522558,-0
 .00909019,0.01778507,0.00442277,0.21040687,0.00027246,-0.00533732,0.00
 580915,0.00917613,0.18170383,-0.33678900,-0.00342781,-0.00661838,0.005
 25144,-0.00961810,-0.19471873,0.34331490,0.00295100,0.02235783,0.03336
 593,-0.07684311,-0.00836459,-0.00730324,0.00462709,-0.02047502,-0.0350
 2127,-0.00033460,0.00124475,0.00195430,0.07062276,-0.00298503,-0.01466
 237,-0.02261034,-0.00891247,-0.20860633,-0.18217086,0.00522818,-0.0090
 8725,-0.01778771,0.00124012,0.02074076,0.02599646,0.00438025,0.2103163
 7,-0.00027529,0.00533850,0.00581140,-0.00912383,-0.18167740,-0.3368773
 2,0.00342905,0.00661054,0.00524193,-0.00195036,-0.02598690,-0.01949983
 ,0.00956376,0.19468769,0.34340927,-0.07342180,-0.00286768,-0.01066939,
 0.00253886,0.02114454,0.03169873,0.00188994,-0.00104336,-0.00012170,0.
 00133497,-0.00136006,-0.00031194,-0.00578373,0.00437669,-0.00173536,0.
 08061011,-0.00456367,-0.19760560,-0.16660303,-0.00076649,-0.01301562,-
 0.02289567,-0.00061265,0.00100977,0.00049822,-0.00170465,0.00154950,-0
 .00009032,0.00396811,-0.00162047,0.00086097,0.01259280,0.20692624,-0.0
 0710215,-0.16130670,-0.32034471,-0.00164867,0.00502915,0.00575199,0.00
 018386,0.00013012,0.00016985,0.00020561,-0.00003108,0.00095904,-0.0013
 8329,0.00091691,0.00088278,0.01256217,0.18031098,0.32448121,-0.0734204
 8,-0.00283661,0.01062340,0.00253782,0.02114064,-0.03170072,0.00188853,
 -0.00104353,0.00012263,-0.00578456,0.00437513,0.00173481,0.00133645,-0
 .00136094,0.00031193,0.00326463,0.00166588,0.00018264,0.08060391,-0.00
 453694,-0.19754192,0.16658131,-0.00076301,-0.01301471,0.02289720,-0.00
 061129,0.00100817,-0.00049794,0.00396891,-0.00162022,-0.00085994,-0.00
 170543,0.00155025,0.00009098,0.00166100,0.01907421,-0.02543847,0.01255
 753,0.20685746,0.00705945,0.16128881,-0.32041708,0.00165024,-0.0050299
 7,0.00575375,-0.00018392,-0.00013017,0.00016934,0.00138379,-0.00091769
 ,0.00088266,-0.00020545,0.00003040,0.00095995,-0.00018742,0.02543014,-
 0.02163710,-0.01252178,-0.18029218,0.32456126,-0.31309888,-0.18253455,
 0.00004132,-0.03996713,-0.01703155,0.00000332,-0.00251974,0.00458032,0
 .00000075,0.00274444,-0.00148227,0.00012036,0.00274227,-0.00148073,-0.
 00012020,-0.01414280,-0.01205378,-0.00287373,-0.01413817,-0.01204630,0
 .00287898,0.73618676,-0.07645932,-0.21720071,0.00003752,0.02639359,0.0
 2626363,-0.00000295,0.00619783,-0.00589750,-0.00000033,-0.00121708,0.0
 0137331,0.00003463,-0.00121647,0.00137247,-0.00003432,-0.03455958,-0.0
 1811085,-0.00054864,-0.03455310,-0.01810687,0.00055864,-0.11361860,0.5
 7778565,0.00000967,0.00003388,-0.07380561,-0.00000302,-0.00000257,0.00
 378604,-0.00000113,0.00000118,0.00074688,0.00095872,-0.00089235,0.0000
 4398,-0.00095925,0.00089212,0.00004424,-0.03006156,-0.01882573,0.00909
 213,0.03007294,0.01883511,0.00908058,0.00006488,-0.00015613,0.05469928
 ,-0.03790523,0.05081469,-0.00001443,-0.00719923,-0.00840607,0.00000064
 ,-0.00168579,0.00182491,0.00000039,0.00068256,-0.00048679,0.00009980,0
 .00068187,-0.00048606,-0.00009971,0.00370982,0.00147445,-0.00012644,0.
 00371186,0.00147552,0.00012612,-0.35780676,0.22903273,-0.00008125,0.39
 581089,-0.05469572,0.01110077,-0.00000487,-0.00473791,-0.00303532,0.00
 000052,-0.00072194,0.00130956,0.,-0.00018972,-0.00000325,-0.00011022,-
 0.00018943,-0.00000342,0.00010993,0.00005566,0.00179283,0.00093772,0.0
 0005500,0.00179362,-0.00093798,0.33566746,-0.34747913,0.00011447,-0.27
 524339,0.33452433,0.00001692,-0.00000134,-0.00319630,0.00000290,0.0000
 0168,0.00093927,0.00000044,-0.00000064,0.00029844,0.00001141,-0.000045
 38,0.00002765,-0.00001150,0.00004532,0.00002758,-0.00117353,0.00131445
 ,0.00064481,0.00117416,-0.00131607,0.00064663,-0.00011568,0.00011157,-
 0.00368753,0.00009489,-0.00010958,0.00429944\\-0.00009375,-0.00002449,
 0.00000063,0.00003030,-0.00003023,-0.00000173,0.00004208,-0.00007533,0
 .00000087,0.00003848,0.00001574,-0.00006551,0.00004063,0.00001577,0.00
 006452,-0.00003823,0.00002002,-0.00002617,-0.00003909,0.00001835,0.000
 02661,-0.00017086,0.00022811,0.00000241,0.00019044,-0.00016793,-0.0000
 0162\\\@


 IN THE WOODS WE RETURN TO REASON AND FAITH.

                                 -- EMERSON
 Job cpu time:  0 days  0 hours  0 minutes  2.1 seconds.
 File lengths (MBytes):  RWF=      5 Int=      0 D2E=      0 Chk=      1 Scr=      1
 Normal termination of Gaussian 09 at Thu Jan 24 17:19:20 2019.
