 Entering Gaussian System, Link 0=/home/programs/G09_64/g09/g09
 Initial command:
 /home/programs/G09_64/g09/l1.exe /scratch/Gau-25485.inp -scrdir=/scratch/
 Entering Link 1 = /home/programs/G09_64/g09/l1.exe PID=     25487.
  
 Copyright (c) 1988,1990,1992,1993,1995,1998,2003,2009,2010,
            Gaussian, Inc.  All Rights Reserved.
  
 This is part of the Gaussian(R) 09 program.  It is based on
 the Gaussian(R) 03 system (copyright 2003, Gaussian, Inc.),
 the Gaussian(R) 98 system (copyright 1998, Gaussian, Inc.),
 the Gaussian(R) 94 system (copyright 1995, Gaussian, Inc.),
 the Gaussian 92(TM) system (copyright 1992, Gaussian, Inc.),
 the Gaussian 90(TM) system (copyright 1990, Gaussian, Inc.),
 the Gaussian 88(TM) system (copyright 1988, Gaussian, Inc.),
 the Gaussian 86(TM) system (copyright 1986, Carnegie Mellon
 University), and the Gaussian 82(TM) system (copyright 1983,
 Carnegie Mellon University). Gaussian is a federally registered
 trademark of Gaussian, Inc.
  
 This software contains proprietary and confidential information,
 including trade secrets, belonging to Gaussian, Inc.
  
 This software is provided under written license and may be
 used, copied, transmitted, or stored only in accord with that
 written license.
  
 The following legend is applicable only to US Government
 contracts under FAR:
  
                    RESTRICTED RIGHTS LEGEND
  
 Use, reproduction and disclosure by the US Government is
 subject to restrictions as set forth in subparagraphs (a)
 and (c) of the Commercial Computer Software - Restricted
 Rights clause in FAR 52.227-19.
  
 Gaussian, Inc.
 340 Quinnipiac St., Bldg. 40, Wallingford CT 06492
  
  
 ---------------------------------------------------------------
 Warning -- This program may not be used in any manner that
 competes with the business of Gaussian, Inc. or will provide
 assistance to any competitor of Gaussian, Inc.  The licensee
 of this program is prohibited from giving any competitor of
 Gaussian, Inc. access to this program.  By using this program,
 the user acknowledges that Gaussian, Inc. is engaged in the
 business of creating and licensing software in the field of
 computational chemistry and represents and warrants to the
 licensee that it is not a competitor of Gaussian, Inc. and that
 it will not use this program in any manner prohibited above.
 ---------------------------------------------------------------
  

 Cite this work as:
 Gaussian 09, Revision B.01,
 M. J. Frisch, G. W. Trucks, H. B. Schlegel, G. E. Scuseria, 
 M. A. Robb, J. R. Cheeseman, G. Scalmani, V. Barone, B. Mennucci, 
 G. A. Petersson, H. Nakatsuji, M. Caricato, X. Li, H. P. Hratchian, 
 A. F. Izmaylov, J. Bloino, G. Zheng, J. L. Sonnenberg, M. Hada, 
 M. Ehara, K. Toyota, R. Fukuda, J. Hasegawa, M. Ishida, T. Nakajima, 
 Y. Honda, O. Kitao, H. Nakai, T. Vreven, J. A. Montgomery, Jr., 
 J. E. Peralta, F. Ogliaro, M. Bearpark, J. J. Heyd, E. Brothers, 
 K. N. Kudin, V. N. Staroverov, T. Keith, R. Kobayashi, J. Normand, 
 K. Raghavachari, A. Rendell, J. C. Burant, S. S. Iyengar, J. Tomasi, 
 M. Cossi, N. Rega, J. M. Millam, M. Klene, J. E. Knox, J. B. Cross, 
 V. Bakken, C. Adamo, J. Jaramillo, R. Gomperts, R. E. Stratmann, 
 O. Yazyev, A. J. Austin, R. Cammi, C. Pomelli, J. W. Ochterski, 
 R. L. Martin, K. Morokuma, V. G. Zakrzewski, G. A. Voth, 
 P. Salvador, J. J. Dannenberg, S. Dapprich, A. D. Daniels, 
 O. Farkas, J. B. Foresman, J. V. Ortiz, J. Cioslowski, 
 and D. J. Fox, Gaussian, Inc., Wallingford CT, 2010.
 
 ******************************************
 Gaussian 09:  AM64L-G09RevB.01 12-Aug-2010
                24-Jan-2019 
 ******************************************
 %mem=1GB
 %chk=kk.chk
 ---------------------------------------------------------
 #p hf/sto-3g scf=verytight opt=tight NoSymm freq units=au
 ---------------------------------------------------------
 1/7=10,18=20,19=15,20=1,38=1/1,3;
 2/9=110,12=2,15=1,17=6,18=5,40=1/2;
 3/6=3,11=9,16=1,25=1,30=1,71=1/1,2,3;
 4//1;
 5/5=2,17=3,38=5/2;
 6/7=2,8=2,9=2,10=2,28=1/1;
 7/30=1/1,2,3,16;
 1/7=10,18=20,19=15/3(2);
 2/9=110,15=1/2;
 99//99;
 2/9=110,15=1/2;
 3/6=3,11=9,16=1,25=1,30=1,71=1/1,2,3;
 4/5=5,16=3/1;
 5/5=2,17=3,38=5/2;
 7/30=1/1,2,3,16;
 1/7=10,18=20,19=15/3(-5);
 2/9=110,15=1/2;
 6/7=2,8=2,9=2,10=2,19=2,28=1/1;
 99/9=1/99;
 Leave Link    1 at Thu Jan 24 17:22:15 2019, MaxMem=  134217728 cpu:       0.0
 (Enter /home/programs/G09_64/g09/l101.exe)
 ---
 ---
 ---
 Symbolic Z-matrix:
 Charge =  0 Multiplicity = 1
 C                     0.01912   1.05267   0.11577 
 C                    -2.39513  -0.4602   -0.0163 
 H                    -4.03408   0.771     0.12282 
 H                    -2.49934  -1.49183  -1.78686 
 H                    -2.49888  -1.8157    1.52693 
 H                     0.0996    2.40968  -1.42145 
 H                     0.10291   2.1207    1.87948 
 O                     2.1992   -0.46293  -0.16728 
 H                     2.21761  -1.70128   1.14959 
 
 NAtoms=      9 NQM=      9 NQMF=      0 NMic=      0 NMicF=      0 NTot=      9.
                    Isotopes and Nuclear Properties:
 (Nuclear quadrupole moments (NQMom) in fm**2, nuclear magnetic moments (NMagM)
  in nuclear magnetons)

  Atom         1           2           3           4           5           6           7           8           9
 IAtWgt=          12          12           1           1           1           1           1          16           1
 AtmWgt=  12.0000000  12.0000000   1.0078250   1.0078250   1.0078250   1.0078250   1.0078250  15.9949146   1.0078250
 NucSpn=           0           0           1           1           1           1           1           0           1
 AtZEff=   0.0000000   0.0000000   0.0000000   0.0000000   0.0000000   0.0000000   0.0000000   0.0000000   0.0000000
 NQMom=    0.0000000   0.0000000   0.0000000   0.0000000   0.0000000   0.0000000   0.0000000   0.0000000   0.0000000
 NMagM=    0.0000000   0.0000000   2.7928460   2.7928460   2.7928460   2.7928460   2.7928460   0.0000000   2.7928460
 Leave Link  101 at Thu Jan 24 17:22:15 2019, MaxMem=  134217728 cpu:       0.1
 (Enter /home/programs/G09_64/g09/l103.exe)

 GradGradGradGradGradGradGradGradGradGradGradGradGradGradGradGradGradGrad
 Berny optimization.
 Initialization pass.
                           ----------------------------
                           !    Initial Parameters    !
                           ! (Angstroms and Degrees)  !
 --------------------------                            --------------------------
 ! Name  Definition              Value          Derivative Info.                !
 --------------------------------------------------------------------------------
 ! R1    R(1,2)                  1.5093         estimate D2E/DX2                !
 ! R2    R(1,6)                  1.0859         estimate D2E/DX2                !
 ! R3    R(1,7)                  1.092          estimate D2E/DX2                !
 ! R4    R(1,8)                  1.413          estimate D2E/DX2                !
 ! R5    R(2,3)                  1.0872         estimate D2E/DX2                !
 ! R6    R(2,4)                  1.0858         estimate D2E/DX2                !
 ! R7    R(2,5)                  1.0883         estimate D2E/DX2                !
 ! R8    R(8,9)                  0.9566         estimate D2E/DX2                !
 ! A1    A(2,1,6)              110.4431         estimate D2E/DX2                !
 ! A2    A(2,1,7)              110.3942         estimate D2E/DX2                !
 ! A3    A(2,1,8)              112.6511         estimate D2E/DX2                !
 ! A4    A(6,1,7)              107.2414         estimate D2E/DX2                !
 ! A5    A(6,1,8)              105.3025         estimate D2E/DX2                !
 ! A6    A(7,1,8)              110.5615         estimate D2E/DX2                !
 ! A7    A(1,2,3)              110.7465         estimate D2E/DX2                !
 ! A8    A(1,2,4)              110.4655         estimate D2E/DX2                !
 ! A9    A(1,2,5)              110.9504         estimate D2E/DX2                !
 ! A10   A(3,2,4)              108.6148         estimate D2E/DX2                !
 ! A11   A(3,2,5)              107.6921         estimate D2E/DX2                !
 ! A12   A(4,2,5)              108.274          estimate D2E/DX2                !
 ! A13   A(1,8,9)              108.6576         estimate D2E/DX2                !
 ! D1    D(6,1,2,3)            -60.0108         estimate D2E/DX2                !
 ! D2    D(6,1,2,4)             60.367          estimate D2E/DX2                !
 ! D3    D(6,1,2,5)           -179.5493         estimate D2E/DX2                !
 ! D4    D(7,1,2,3)             58.4175         estimate D2E/DX2                !
 ! D5    D(7,1,2,4)            178.7953         estimate D2E/DX2                !
 ! D6    D(7,1,2,5)            -61.121          estimate D2E/DX2                !
 ! D7    D(8,1,2,3)           -177.4461         estimate D2E/DX2                !
 ! D8    D(8,1,2,4)            -57.0683         estimate D2E/DX2                !
 ! D9    D(8,1,2,5)             63.0154         estimate D2E/DX2                !
 ! D10   D(2,1,8,9)            -59.4672         estimate D2E/DX2                !
 ! D11   D(6,1,8,9)           -179.9023         estimate D2E/DX2                !
 ! D12   D(7,1,8,9)             64.5769         estimate D2E/DX2                !
 --------------------------------------------------------------------------------
 Trust Radius=3.00D-01 FncErr=1.00D-07 GrdErr=1.00D-07
 Number of steps in this run=     43 maximum allowed number of steps=    100.
 GradGradGradGradGradGradGradGradGradGradGradGradGradGradGradGradGradGrad

 Leave Link  103 at Thu Jan 24 17:22:15 2019, MaxMem=  134217728 cpu:       0.0
 (Enter /home/programs/G09_64/g09/l202.exe)
                          Input orientation:                          
 ---------------------------------------------------------------------
 Center     Atomic      Atomic             Coordinates (Angstroms)
 Number     Number       Type             X           Y           Z
 ---------------------------------------------------------------------
      1          6           0        0.010115    0.557048    0.061263
      2          6           0       -1.267446   -0.243527   -0.008626
      3          1           0       -2.134744    0.407995    0.064993
      4          1           0       -1.322592   -0.789443   -0.945563
      5          1           0       -1.322351   -0.960828    0.808014
      6          1           0        0.052704    1.275148   -0.752201
      7          1           0        0.054457    1.122225    0.994576
      8          8           0        1.163768   -0.244970   -0.088522
      9          1           0        1.173511   -0.900278    0.608335
 ---------------------------------------------------------------------
                    Distance matrix (angstroms):
                    1          2          3          4          5
     1  C    0.000000
     2  C    1.509293   0.000000
     3  H    2.150036   1.087248   0.000000
     4  H    2.145424   1.085780   1.764844   0.000000
     5  H    2.153381   1.088318   1.756627   1.761933   0.000000
     6  H    1.085912   2.145244   2.490922   2.488245   3.053626
     7  H    1.092000   2.149214   2.483315   3.052029   2.503899
     8  O    1.413005   2.432526   3.366023   2.685694   2.738068
     9  H    1.943342   2.601967   3.598799   2.942348   2.504569
                    6          7          8          9
     6  H    0.000000
     7  H    1.753459   0.000000
     8  O    1.996419   2.067097   0.000000
     9  H    2.799954   2.343497   0.956626   0.000000
 Symmetry turned off by external request.
 Stoichiometry    C2H6O
 Framework group  C1[X(C2H6O)]
 Deg. of freedom    21
 Full point group                 C1      NOp   1
 Rotational constants (GHZ):     34.8353905      9.3399616      8.2402565
 Leave Link  202 at Thu Jan 24 17:22:15 2019, MaxMem=  134217728 cpu:       0.0
 (Enter /home/programs/G09_64/g09/l301.exe)
 Standard basis: STO-3G (5D, 7F)
 Ernie: Thresh=  0.10000D-02 Tol=  0.10000D-05 Strict=F.
 Integral buffers will be    131072 words long.
 Raffenetti 1 integral format.
 Two-electron integral symmetry is turned off.
    21 basis functions,    63 primitive gaussians,    21 cartesian basis functions
    13 alpha electrons       13 beta electrons
       nuclear repulsion energy        82.2026217870 Hartrees.
 IExCor=    0 DFT=F Ex=HF Corr=None ExCW=0 ScaHFX=  1.000000
 ScaDFX=  1.000000  1.000000  1.000000  1.000000 ScalE2=  1.000000  1.000000
 IRadAn=      0 IRanWt=     -1 IRanGd=            0 ICorTp=0
 NAtoms=    9 NActive=    9 NUniq=    9 SFac= 1.00D+00 NAtFMM=   50 NAOKFM=F Big=F
 Leave Link  301 at Thu Jan 24 17:22:15 2019, MaxMem=  134217728 cpu:       0.0
 (Enter /home/programs/G09_64/g09/l302.exe)
 NPDir=0 NMtPBC=     1 NCelOv=     1 NCel=       1 NClECP=     1 NCelD=      1
         NCelK=      1 NCelE2=     1 NClLst=     1 CellRange=     0.0.
 One-electron integrals computed using PRISM.
 NBasis=    21 RedAO= T  NBF=    21
 NBsUse=    21 1.00D-06 NBFU=    21
 Leave Link  302 at Thu Jan 24 17:22:15 2019, MaxMem=  134217728 cpu:       0.1
 (Enter /home/programs/G09_64/g09/l303.exe)
 DipDrv:  MaxL=1.
 Leave Link  303 at Thu Jan 24 17:22:15 2019, MaxMem=  134217728 cpu:       0.0
 (Enter /home/programs/G09_64/g09/l401.exe)
 Harris functional with IExCor=  205 diagonalized for initial guess.
 ExpMin= 1.69D-01 ExpMax= 1.31D+02 ExpMxC= 1.31D+02 IAcc=1 IRadAn=         1 AccDes= 0.00D+00
 HarFok:  IExCor=  205 AccDes= 0.00D+00 IRadAn=         1 IDoV= 1
 ScaDFX=  1.000000  1.000000  1.000000  1.000000
 FoFCou: FMM=F IPFlag=           0 FMFlag=      100000 FMFlg1=           0
         NFxFlg=           0 DoJE=T BraDBF=F KetDBF=T FulRan=T
         Omega=  0.000000  0.000000  1.000000  0.000000  0.000000 ICntrl=     500 IOpCl=  0
         NMat0=    1 NMatS0=    1 NMatT0=    0 NMatD0=    1 NMtDS0=    0 NMtDT0=    0
         I1Cent=           4 NGrid=           0.
 Symmetry not used in FoFCou.
 Harris En= -152.345030308600    
 Leave Link  401 at Thu Jan 24 17:22:16 2019, MaxMem=  134217728 cpu:       0.2
 (Enter /home/programs/G09_64/g09/l502.exe)
 Closed shell SCF:
 Requested convergence on RMS density matrix=1.00D-08 within 128 cycles.
 Requested convergence on MAX density matrix=1.00D-06.
 Requested convergence on             energy=1.00D-06.
 No special actions if energy rises.
 Using DIIS extrapolation, IDIIS=  1040.
 Two-electron integral symmetry not used.
 Keep R1 ints in memory in canonical form, NReq=846549.
 IEnd=       19739 IEndB=       19739 NGot=   134217728 MDV=   134188268
 LenX=   134188268 LenY=   134187386
 Symmetry not used in FoFDir.
 MinBra= 0 MaxBra= 1 Meth= 1.
 IRaf=       0 NMat=   1 IRICut=       1 DoRegI=T DoRafI=F ISym2E= 0 JSym2E=0.

 Cycle   1  Pass 1  IDiag  1:
 E= -152.048405897050    
 DIIS: error= 4.31D-02 at cycle   1 NSaved=   1.
 NSaved= 1 IEnMin= 1 EnMin= -152.048405897050     IErMin= 1 ErrMin= 4.31D-02
 ErrMax= 4.31D-02 EMaxC= 1.00D-01 BMatC= 7.38D-02 BMatP= 7.38D-02
 IDIUse=3 WtCom= 5.69D-01 WtEn= 4.31D-01
 Coeff-Com:  0.100D+01
 Coeff-En:   0.100D+01
 Coeff:      0.100D+01
 Gap=     0.930 Goal=   None    Shift=    0.000
 GapD=    0.930 DampG=2.000 DampE=0.500 DampFc=1.0000 IDamp=-1.
 RMSDP=1.76D-02 MaxDP=1.07D-01              OVMax= 0.00D+00

 Cycle   2  Pass 1  IDiag  1:
 E= -152.127566907141     Delta-E=       -0.079161010090 Rises=F Damp=F
 DIIS: error= 6.66D-03 at cycle   2 NSaved=   2.
 NSaved= 2 IEnMin= 2 EnMin= -152.127566907141     IErMin= 2 ErrMin= 6.66D-03
 ErrMax= 6.66D-03 EMaxC= 1.00D-01 BMatC= 1.46D-03 BMatP= 7.38D-02
 IDIUse=3 WtCom= 9.33D-01 WtEn= 6.66D-02
 Coeff-Com:  0.522D-01 0.948D+00
 Coeff-En:   0.000D+00 0.100D+01
 Coeff:      0.487D-01 0.951D+00
 Gap=     0.928 Goal=   None    Shift=    0.000
 RMSDP=2.54D-03 MaxDP=2.12D-02 DE=-7.92D-02 OVMax= 0.00D+00

 Cycle   3  Pass 1  IDiag  1:
 E= -152.129173311887     Delta-E=       -0.001606404747 Rises=F Damp=F
 DIIS: error= 9.81D-04 at cycle   3 NSaved=   3.
 NSaved= 3 IEnMin= 3 EnMin= -152.129173311887     IErMin= 3 ErrMin= 9.81D-04
 ErrMax= 9.81D-04 EMaxC= 1.00D-01 BMatC= 3.83D-05 BMatP= 1.46D-03
 IDIUse=3 WtCom= 9.90D-01 WtEn= 9.81D-03
 Coeff-Com: -0.105D-01 0.221D-01 0.988D+00
 Coeff-En:   0.000D+00 0.000D+00 0.100D+01
 Coeff:     -0.104D-01 0.219D-01 0.989D+00
 Gap=     0.923 Goal=   None    Shift=    0.000
 RMSDP=5.07D-04 MaxDP=2.60D-03 DE=-1.61D-03 OVMax= 0.00D+00

 Cycle   4  Pass 1  IDiag  1:
 E= -152.129237301135     Delta-E=       -0.000063989248 Rises=F Damp=F
 DIIS: error= 1.76D-04 at cycle   4 NSaved=   4.
 NSaved= 4 IEnMin= 4 EnMin= -152.129237301135     IErMin= 4 ErrMin= 1.76D-04
 ErrMax= 1.76D-04 EMaxC= 1.00D-01 BMatC= 1.76D-06 BMatP= 3.83D-05
 IDIUse=3 WtCom= 9.98D-01 WtEn= 1.76D-03
 Coeff-Com:  0.188D-03-0.259D-01-0.129D+00 0.115D+01
 Coeff-En:   0.000D+00 0.000D+00 0.000D+00 0.100D+01
 Coeff:      0.188D-03-0.259D-01-0.128D+00 0.115D+01
 Gap=     0.923 Goal=   None    Shift=    0.000
 RMSDP=1.39D-04 MaxDP=8.08D-04 DE=-6.40D-05 OVMax= 0.00D+00

 Cycle   5  Pass 1  IDiag  1:
 E= -152.129240889444     Delta-E=       -0.000003588309 Rises=F Damp=F
 DIIS: error= 3.22D-05 at cycle   5 NSaved=   5.
 NSaved= 5 IEnMin= 5 EnMin= -152.129240889444     IErMin= 5 ErrMin= 3.22D-05
 ErrMax= 3.22D-05 EMaxC= 1.00D-01 BMatC= 3.27D-08 BMatP= 1.76D-06
 IDIUse=1 WtCom= 1.00D+00 WtEn= 0.00D+00
 Coeff-Com:  0.262D-03 0.576D-03-0.227D-01-0.477D-01 0.107D+01
 Coeff:      0.262D-03 0.576D-03-0.227D-01-0.477D-01 0.107D+01
 Gap=     0.923 Goal=   None    Shift=    0.000
 RMSDP=2.16D-05 MaxDP=1.34D-04 DE=-3.59D-06 OVMax= 0.00D+00

 Cycle   6  Pass 1  IDiag  1:
 E= -152.129240962855     Delta-E=       -0.000000073410 Rises=F Damp=F
 DIIS: error= 5.59D-06 at cycle   6 NSaved=   6.
 NSaved= 6 IEnMin= 6 EnMin= -152.129240962855     IErMin= 6 ErrMin= 5.59D-06
 ErrMax= 5.59D-06 EMaxC= 1.00D-01 BMatC= 1.08D-09 BMatP= 3.27D-08
 IDIUse=1 WtCom= 1.00D+00 WtEn= 0.00D+00
 Coeff-Com: -0.840D-04 0.130D-03 0.898D-02 0.195D-02-0.353D+00 0.134D+01
 Coeff:     -0.840D-04 0.130D-03 0.898D-02 0.195D-02-0.353D+00 0.134D+01
 Gap=     0.923 Goal=   None    Shift=    0.000
 RMSDP=4.39D-06 MaxDP=2.17D-05 DE=-7.34D-08 OVMax= 0.00D+00

 Cycle   7  Pass 1  IDiag  1:
 E= -152.129240965849     Delta-E=       -0.000000002995 Rises=F Damp=F
 DIIS: error= 7.90D-07 at cycle   7 NSaved=   7.
 NSaved= 7 IEnMin= 7 EnMin= -152.129240965849     IErMin= 7 ErrMin= 7.90D-07
 ErrMax= 7.90D-07 EMaxC= 1.00D-01 BMatC= 4.47D-11 BMatP= 1.08D-09
 IDIUse=1 WtCom= 1.00D+00 WtEn= 0.00D+00
 Coeff-Com: -0.791D-05-0.158D-04 0.787D-03 0.169D-02-0.402D-01 0.800D-02
 Coeff-Com:  0.103D+01
 Coeff:     -0.791D-05-0.158D-04 0.787D-03 0.169D-02-0.402D-01 0.800D-02
 Coeff:      0.103D+01
 Gap=     0.923 Goal=   None    Shift=    0.000
 RMSDP=7.52D-07 MaxDP=4.24D-06 DE=-2.99D-09 OVMax= 0.00D+00

 Cycle   8  Pass 1  IDiag  1:
 E= -152.129240965960     Delta-E=       -0.000000000110 Rises=F Damp=F
 DIIS: error= 3.15D-07 at cycle   8 NSaved=   8.
 NSaved= 8 IEnMin= 8 EnMin= -152.129240965960     IErMin= 8 ErrMin= 3.15D-07
 ErrMax= 3.15D-07 EMaxC= 1.00D-01 BMatC= 4.16D-12 BMatP= 4.47D-11
 IDIUse=1 WtCom= 1.00D+00 WtEn= 0.00D+00
 Coeff-Com:  0.951D-05-0.130D-04-0.102D-02-0.267D-03 0.402D-01-0.117D+00
 Coeff-Com: -0.266D+00 0.134D+01
 Coeff:      0.951D-05-0.130D-04-0.102D-02-0.267D-03 0.402D-01-0.117D+00
 Coeff:     -0.266D+00 0.134D+01
 Gap=     0.923 Goal=   None    Shift=    0.000
 RMSDP=3.23D-07 MaxDP=1.81D-06 DE=-1.10D-10 OVMax= 0.00D+00

 Cycle   9  Pass 1  IDiag  1:
 E= -152.129240965972     Delta-E=       -0.000000000013 Rises=F Damp=F
 DIIS: error= 5.29D-08 at cycle   9 NSaved=   9.
 NSaved= 9 IEnMin= 9 EnMin= -152.129240965972     IErMin= 9 ErrMin= 5.29D-08
 ErrMax= 5.29D-08 EMaxC= 1.00D-01 BMatC= 8.48D-14 BMatP= 4.16D-12
 IDIUse=1 WtCom= 1.00D+00 WtEn= 0.00D+00
 Coeff-Com: -0.295D-05 0.408D-05 0.316D-03 0.825D-04-0.125D-01 0.388D-01
 Coeff-Com:  0.617D-01-0.443D+00 0.135D+01
 Coeff:     -0.295D-05 0.408D-05 0.316D-03 0.825D-04-0.125D-01 0.388D-01
 Coeff:      0.617D-01-0.443D+00 0.135D+01
 Gap=     0.923 Goal=   None    Shift=    0.000
 RMSDP=4.25D-08 MaxDP=2.53D-07 DE=-1.30D-11 OVMax= 0.00D+00

 Cycle  10  Pass 1  IDiag  1:
 E= -152.129240965973     Delta-E=        0.000000000000 Rises=F Damp=F
 DIIS: error= 1.06D-08 at cycle  10 NSaved=  10.
 NSaved=10 IEnMin=10 EnMin= -152.129240965973     IErMin=10 ErrMin= 1.06D-08
 ErrMax= 1.06D-08 EMaxC= 1.00D-01 BMatC= 2.83D-15 BMatP= 8.48D-14
 IDIUse=1 WtCom= 1.00D+00 WtEn= 0.00D+00
 Coeff-Com:  0.758D-06-0.944D-06-0.809D-04-0.296D-04 0.329D-02-0.105D-01
 Coeff-Com: -0.123D-01 0.113D+00-0.459D+00 0.137D+01
 Coeff:      0.758D-06-0.944D-06-0.809D-04-0.296D-04 0.329D-02-0.105D-01
 Coeff:     -0.123D-01 0.113D+00-0.459D+00 0.137D+01
 Gap=     0.923 Goal=   None    Shift=    0.000
 RMSDP=7.71D-09 MaxDP=6.40D-08 DE=-3.41D-13 OVMax= 0.00D+00

 SCF Done:  E(RHF) =  -152.129240966     A.U. after   10 cycles
             Convg  =    0.7709D-08             -V/T =  2.0078
 KE= 1.509531509715D+02 PE=-5.217475557645D+02 EE= 1.364625420401D+02
 Leave Link  502 at Thu Jan 24 17:22:16 2019, MaxMem=  134217728 cpu:       0.1
 (Enter /home/programs/G09_64/g09/l601.exe)
 Copying SCF densities to generalized density rwf, IOpCl= 0 IROHF=0.

 **********************************************************************

            Population analysis using the SCF density.

 **********************************************************************

 Alpha  occ. eigenvalues --  -20.24666 -11.09188 -11.04307  -1.28718  -0.97498
 Alpha  occ. eigenvalues --   -0.80627  -0.62906  -0.57518  -0.55402  -0.50223
 Alpha  occ. eigenvalues --   -0.47604  -0.39898  -0.34912
 Alpha virt. eigenvalues --    0.57394   0.62302   0.67523   0.71295   0.73756
 Alpha virt. eigenvalues --    0.76163   0.77317   0.80367
          Condensed to atoms (all electrons):
              1          2          3          4          5          6
     1  C    4.698696   0.362189  -0.018835  -0.021721  -0.022090   0.381855
     2  C    0.362189   4.750209   0.382761   0.384837   0.383147  -0.023347
     3  H   -0.018835   0.382761   0.615494  -0.020461  -0.021266  -0.001837
     4  H   -0.021721   0.384837  -0.020461   0.612617  -0.021979  -0.002694
     5  H   -0.022090   0.383147  -0.021266  -0.021979   0.626978   0.001952
     6  H    0.381855  -0.023347  -0.001837  -0.002694   0.001952   0.618324
     7  H    0.376717  -0.026956  -0.001717   0.002006  -0.002448  -0.024760
     8  O    0.272936  -0.018216   0.000607  -0.000580  -0.000958  -0.021071
     9  H   -0.043465  -0.002782  -0.000021  -0.000023   0.000748   0.003950
              7          8          9
     1  C    0.376717   0.272936  -0.043465
     2  C   -0.026956  -0.018216  -0.002782
     3  H   -0.001717   0.000607  -0.000021
     4  H    0.002006  -0.000580  -0.000023
     5  H   -0.002448  -0.000958   0.000748
     6  H   -0.024760  -0.021071   0.003950
     7  H    0.648875  -0.017229  -0.002874
     8  O   -0.017229   7.837670   0.259982
     9  H   -0.002874   0.259982   0.598419
 Mulliken atomic charges:
              1
     1  C    0.013718
     2  C   -0.191843
     3  H    0.065275
     4  H    0.067998
     5  H    0.055915
     6  H    0.067627
     7  H    0.048385
     8  O   -0.313141
     9  H    0.186066
 Sum of Mulliken atomic charges =   0.00000
 Mulliken charges with hydrogens summed into heavy atoms:
              1
     1  C    0.129730
     2  C   -0.002655
     8  O   -0.127075
 Sum of Mulliken charges with hydrogens summed into heavy atoms =   0.00000
 Electronic spatial extent (au):  <R**2>=            189.8997
 Charge=              0.0000 electrons
 Dipole moment (field-independent basis, Debye):
    X=             -1.0699    Y=             -0.2270    Z=              1.0450  Tot=              1.5127
 Quadrupole moment (field-independent basis, Debye-Ang):
   XX=            -20.3602   YY=            -17.4617   ZZ=            -17.8813
   XY=             -0.7032   XZ=              1.3563   YZ=             -0.9577
 Traceless Quadrupole moment (field-independent basis, Debye-Ang):
   XX=             -1.7924   YY=              1.1060   ZZ=              0.6864
   XY=             -0.7032   XZ=              1.3563   YZ=             -0.9577
 Octapole moment (field-independent basis, Debye-Ang**2):
  XXX=              8.0464  YYY=             -2.5045  ZZZ=             -0.9498  XYY=              4.4833
  XXY=             -0.9361  XXZ=              1.1862  XZZ=              3.9289  YZZ=             -1.0125
  YYZ=              0.1648  XYZ=             -1.0908
 Hexadecapole moment (field-independent basis, Debye-Ang**3):
 XXXX=           -142.3548 YYYY=            -49.3988 ZZZZ=            -28.4260 XXXY=             -5.5925
 XXXZ=              1.3729 YYYX=             -3.3951 YYYZ=             -1.2905 ZZZX=              0.3908
 ZZZY=             -0.2817 XXYY=            -30.1163 XXZZ=            -27.8655 YYZZ=            -11.5883
 XXYZ=             -1.1069 YYXZ=              0.5643 ZZXY=             -0.4516
 N-N= 8.220262178699D+01 E-N=-5.217475557853D+02  KE= 1.509531509715D+02
 No NMR shielding tensors so no spin-rotation constants.
 Leave Link  601 at Thu Jan 24 17:22:16 2019, MaxMem=  134217728 cpu:       0.1
 (Enter /home/programs/G09_64/g09/l701.exe)
 Compute integral first derivatives.
 ... and contract with generalized density number  0.
 Leave Link  701 at Thu Jan 24 17:22:16 2019, MaxMem=  134217728 cpu:       0.1
 (Enter /home/programs/G09_64/g09/l702.exe)
 L702 exits ... SP integral derivatives will be done elsewhere.
 Leave Link  702 at Thu Jan 24 17:22:16 2019, MaxMem=  134217728 cpu:       0.0
 (Enter /home/programs/G09_64/g09/l703.exe)
 Compute integral first derivatives, UseDBF=F ICtDFT=           0.
 Integral derivatives from FoFDir, PRISM(SPDF).
 Calling FoFJK, ICntrl=      2127 FMM=F ISym2X=0 I1Cent= 0 IOpClX= 0 NMat=1 NMatS=1 NMatT=0.
 FoFCou: FMM=F IPFlag=           0 FMFlag=      100000 FMFlg1=         800
         NFxFlg=           0 DoJE=F BraDBF=F KetDBF=F FulRan=T
         Omega=  0.000000  0.000000  1.000000  0.000000  0.000000 ICntrl=    2127 IOpCl=  0
         NMat0=    1 NMatS0=    1 NMatT0=    0 NMatD0=    1 NMtDS0=    0 NMtDT0=    0
         I1Cent=           0 NGrid=           0.
 Symmetry not used in FoFCou.
 Leave Link  703 at Thu Jan 24 17:22:16 2019, MaxMem=  134217728 cpu:       0.1
 (Enter /home/programs/G09_64/g09/l716.exe)
 Dipole        =-4.20943238D-01-8.93010750D-02 4.11122079D-01
 -------------------------------------------------------------------
 Center     Atomic                   Forces (Hartrees/Bohr)
 Number     Number              X              Y              Z
 -------------------------------------------------------------------
      1        6           0.014114799    0.009966603    0.010111283
      2        6          -0.028013973   -0.013009796    0.000926403
      3        1           0.001098406   -0.000741849   -0.000927008
      4        1          -0.000478972    0.000079352    0.000209495
      5        1           0.000649731    0.000745577   -0.001360035
      6        1          -0.002084455    0.005254654   -0.005079780
      7        1          -0.002954673    0.003507738    0.004612242
      8        8           0.026775862    0.019444281   -0.044033779
      9        1          -0.009106724   -0.025246560    0.035541180
 -------------------------------------------------------------------
 Cartesian Forces:  Max     0.044033779 RMS     0.015490717
 Leave Link  716 at Thu Jan 24 17:22:16 2019, MaxMem=  134217728 cpu:       0.0
 (Enter /home/programs/G09_64/g09/l103.exe)

 GradGradGradGradGradGradGradGradGradGradGradGradGradGradGradGradGradGrad
 Berny optimization.
 Internal  Forces:  Max     0.043091727 RMS     0.010480076
 Search for a local minimum.
 Step number   1 out of a maximum of   43
 All quantities printed in internal units (Hartrees-Bohrs-Radians)
 RMS Force = .10480D-01 SwitMx=.10000D-02 MixMth= 1
 Mixed Optimization -- RFO/linear search
 Second derivative matrix not updated -- first step.
 ITU=  0
     Eigenvalues ---    0.00643   0.01520   0.04925   0.05755   0.05763
     Eigenvalues ---    0.05899   0.11808   0.14020   0.16000   0.16000
     Eigenvalues ---    0.16000   0.16000   0.22020   0.31422   0.34582
     Eigenvalues ---    0.35008   0.35133   0.35289   0.35305   0.43532
     Eigenvalues ---    0.56205
 RFO step:  Lambda=-9.77180545D-03 EMin= 6.43012967D-03
 Linear search not attempted -- first point.
 Iteration  1 RMS(Cart)=  0.03315190 RMS(Int)=  0.00176957
 Iteration  2 RMS(Cart)=  0.00208337 RMS(Int)=  0.00015448
 Iteration  3 RMS(Cart)=  0.00000727 RMS(Int)=  0.00015436
 Iteration  4 RMS(Cart)=  0.00000000 RMS(Int)=  0.00015436
 Variable       Old X    -DE/DX   Delta X   Delta X   Delta X     New X
                                 (Linear)    (Quad)   (Total)
    R1        2.85215   0.02955   0.00000   0.09120   0.09120   2.94335
    R2        2.05208   0.00720   0.00000   0.01985   0.01985   2.07192
    R3        2.06358   0.00564   0.00000   0.01585   0.01585   2.07944
    R4        2.67019   0.01862   0.00000   0.04183   0.04183   2.71203
    R5        2.05460  -0.00138   0.00000  -0.00383  -0.00383   2.05077
    R6        2.05183  -0.00020   0.00000  -0.00054  -0.00054   2.05128
    R7        2.05662  -0.00154   0.00000  -0.00429  -0.00429   2.05233
    R8        1.80776   0.04309   0.00000   0.07536   0.07536   1.88312
    A1        1.92760  -0.00253   0.00000  -0.01958  -0.01983   1.90777
    A2        1.92674  -0.00334   0.00000  -0.02246  -0.02275   1.90399
    A3        1.96613   0.00357   0.00000   0.01914   0.01922   1.98535
    A4        1.87172   0.00081   0.00000  -0.00588  -0.00645   1.86527
    A5        1.83788   0.00038   0.00000   0.01079   0.01092   1.84879
    A6        1.92966   0.00115   0.00000   0.01816   0.01827   1.94794
    A7        1.93289   0.00002   0.00000   0.00054   0.00054   1.93343
    A8        1.92799   0.00057   0.00000   0.00216   0.00216   1.93015
    A9        1.93645  -0.00050   0.00000  -0.00218  -0.00218   1.93427
   A10        1.89569  -0.00052   0.00000  -0.00459  -0.00459   1.89109
   A11        1.87958   0.00058   0.00000   0.00571   0.00571   1.88529
   A12        1.88974  -0.00015   0.00000  -0.00167  -0.00167   1.88806
   A13        1.89643  -0.02034   0.00000  -0.11979  -0.11979   1.77665
    D1       -1.04739   0.00149   0.00000   0.01985   0.01965  -1.02774
    D2        1.05360   0.00122   0.00000   0.01587   0.01566   1.06927
    D3       -3.13373   0.00108   0.00000   0.01376   0.01356  -3.12017
    D4        1.01958  -0.00118   0.00000  -0.01368  -0.01347   1.00611
    D5        3.12057  -0.00145   0.00000  -0.01767  -0.01746   3.10311
    D6       -1.06676  -0.00159   0.00000  -0.01977  -0.01956  -1.08632
    D7       -3.09702   0.00042   0.00000   0.00709   0.00709  -3.08993
    D8       -0.99603   0.00015   0.00000   0.00311   0.00310  -0.99293
    D9        1.09983   0.00001   0.00000   0.00101   0.00100   1.10082
   D10       -1.03790  -0.00011   0.00000  -0.00643  -0.00648  -1.04438
   D11       -3.13989   0.00073   0.00000  -0.00025  -0.00031  -3.14020
   D12        1.12708  -0.00098   0.00000  -0.00802  -0.00791   1.11917
         Item               Value     Threshold  Converged?
 Maximum Force            0.043092     0.000015     NO 
 RMS     Force            0.010480     0.000010     NO 
 Maximum Displacement     0.105769     0.000060     NO 
 RMS     Displacement     0.033605     0.000040     NO 
 Predicted change in Energy=-5.050913D-03
 GradGradGradGradGradGradGradGradGradGradGradGradGradGradGradGradGradGrad

 Leave Link  103 at Thu Jan 24 17:22:16 2019, MaxMem=  134217728 cpu:       0.0
 (Enter /home/programs/G09_64/g09/l202.exe)
                          Input orientation:                          
 ---------------------------------------------------------------------
 Center     Atomic      Atomic             Coordinates (Angstroms)
 Number     Number       Type             X           Y           Z
 ---------------------------------------------------------------------
      1          6           0        0.040789    0.558202    0.056480
      2          6           0       -1.285247   -0.256176   -0.009828
      3          1           0       -2.145033    0.400718    0.073611
      4          1           0       -1.356180   -0.794219   -0.949921
      5          1           0       -1.335150   -0.979241    0.798988
      6          1           0        0.055356    1.293981   -0.756257
      7          1           0        0.068949    1.123863    0.999927
      8          8           0        1.219738   -0.241899   -0.115419
      9          1           0        1.144200   -0.881859    0.644690
 ---------------------------------------------------------------------
                    Distance matrix (angstroms):
                    1          2          3          4          5
     1  C    0.000000
     2  C    1.557556   0.000000
     3  H    2.191555   1.085221   0.000000
     4  H    2.189385   1.085493   1.760052   0.000000
     5  H    2.192773   1.086046   1.756806   1.758794   0.000000
     6  H    1.096415   2.181138   2.515614   2.527948   3.085422
     7  H    1.100390   2.181275   2.506534   3.084143   2.536713
     8  O    1.435142   2.507251   3.430798   2.763477   2.811986
     9  H    1.907166   2.592699   3.576337   2.966878   2.486055
                    6          7          8          9
     6  H    0.000000
     7  H    1.764457   0.000000
     8  O    2.031105   2.105616   0.000000
     9  H    2.807582   2.303319   0.996504   0.000000
 Symmetry turned off by external request.
 Stoichiometry    C2H6O
 Framework group  C1[X(C2H6O)]
 Deg. of freedom    21
 Full point group                 C1      NOp   1
 Rotational constants (GHZ):     34.2667658      8.8637676      7.8646235
 Leave Link  202 at Thu Jan 24 17:22:16 2019, MaxMem=  134217728 cpu:       0.0
 (Enter /home/programs/G09_64/g09/l301.exe)
 Standard basis: STO-3G (5D, 7F)
 Ernie: Thresh=  0.10000D-02 Tol=  0.10000D-05 Strict=F.
 Integral buffers will be    131072 words long.
 Raffenetti 1 integral format.
 Two-electron integral symmetry is turned off.
    21 basis functions,    63 primitive gaussians,    21 cartesian basis functions
    13 alpha electrons       13 beta electrons
       nuclear repulsion energy        80.7208987416 Hartrees.
 IExCor=    0 DFT=F Ex=HF Corr=None ExCW=0 ScaHFX=  1.000000
 ScaDFX=  1.000000  1.000000  1.000000  1.000000 ScalE2=  1.000000  1.000000
 IRadAn=      0 IRanWt=     -1 IRanGd=            0 ICorTp=0
 NAtoms=    9 NActive=    9 NUniq=    9 SFac= 1.00D+00 NAtFMM=   50 NAOKFM=F Big=F
 Leave Link  301 at Thu Jan 24 17:22:16 2019, MaxMem=  134217728 cpu:       0.1
 (Enter /home/programs/G09_64/g09/l302.exe)
 NPDir=0 NMtPBC=     1 NCelOv=     1 NCel=       1 NClECP=     1 NCelD=      1
         NCelK=      1 NCelE2=     1 NClLst=     1 CellRange=     0.0.
 One-electron integrals computed using PRISM.
 NBasis=    21 RedAO= T  NBF=    21
 NBsUse=    21 1.00D-06 NBFU=    21
 Leave Link  302 at Thu Jan 24 17:22:16 2019, MaxMem=  134217728 cpu:       0.1
 (Enter /home/programs/G09_64/g09/l303.exe)
 DipDrv:  MaxL=1.
 Leave Link  303 at Thu Jan 24 17:22:17 2019, MaxMem=  134217728 cpu:       0.0
 (Enter /home/programs/G09_64/g09/l401.exe)
 Initial guess read from the read-write file.
 B after Tr=     0.000000    0.000000    0.000000
         Rot=    1.000000    0.000000    0.000000    0.000000 Ang=   0.00 deg.
 Guess basis will be translated and rotated to current coordinates.
 Generating alternative initial guess.
 Harris functional with IExCor=  205 diagonalized for initial guess.
 ExpMin= 1.69D-01 ExpMax= 1.31D+02 ExpMxC= 1.31D+02 IAcc=1 IRadAn=         1 AccDes= 0.00D+00
 HarFok:  IExCor=  205 AccDes= 0.00D+00 IRadAn=         1 IDoV= 1
 ScaDFX=  1.000000  1.000000  1.000000  1.000000
 FoFCou: FMM=F IPFlag=           0 FMFlag=      100000 FMFlg1=           0
         NFxFlg=           0 DoJE=T BraDBF=F KetDBF=T FulRan=T
         Omega=  0.000000  0.000000  1.000000  0.000000  0.000000 ICntrl=     500 IOpCl=  0
         NMat0=    1 NMatS0=    1 NMatT0=    0 NMatD0=    1 NMtDS0=    0 NMtDT0=    0
         I1Cent=           4 NGrid=           0.
 Symmetry not used in FoFCou.
 Harris En= -152.346536473888    
 Leave Link  401 at Thu Jan 24 17:22:17 2019, MaxMem=  134217728 cpu:       0.3
 (Enter /home/programs/G09_64/g09/l502.exe)
 Closed shell SCF:
 Requested convergence on RMS density matrix=1.00D-08 within 128 cycles.
 Requested convergence on MAX density matrix=1.00D-06.
 Requested convergence on             energy=1.00D-06.
 No special actions if energy rises.
 Using DIIS extrapolation, IDIIS=  1040.
 Two-electron integral symmetry not used.
 Keep R1 ints in memory in canonical form, NReq=846549.
 IEnd=       19739 IEndB=       19739 NGot=   134217728 MDV=   134188268
 LenX=   134188268 LenY=   134187386
 Symmetry not used in FoFDir.
 MinBra= 0 MaxBra= 1 Meth= 1.
 IRaf=       0 NMat=   1 IRICut=       1 DoRegI=T DoRafI=F ISym2E= 0 JSym2E=0.

 Cycle   1  Pass 1  IDiag  1:
 E= -152.130808320561    
 DIIS: error= 6.97D-03 at cycle   1 NSaved=   1.
 NSaved= 1 IEnMin= 1 EnMin= -152.130808320561     IErMin= 1 ErrMin= 6.97D-03
 ErrMax= 6.97D-03 EMaxC= 1.00D-01 BMatC= 8.18D-04 BMatP= 8.18D-04
 IDIUse=3 WtCom= 9.30D-01 WtEn= 6.97D-02
 Coeff-Com:  0.100D+01
 Coeff-En:   0.100D+01
 Coeff:      0.100D+01
 Gap=     0.914 Goal=   None    Shift=    0.000
 GapD=    0.914 DampG=2.000 DampE=1.000 DampFc=2.0000 IDamp=-1.
 RMSDP=2.43D-03 MaxDP=1.53D-02              OVMax= 0.00D+00

 Cycle   2  Pass 1  IDiag  1:
 E= -152.132368898899     Delta-E=       -0.001560578339 Rises=F Damp=F
 DIIS: error= 1.93D-03 at cycle   2 NSaved=   2.
 NSaved= 2 IEnMin= 2 EnMin= -152.132368898899     IErMin= 2 ErrMin= 1.93D-03
 ErrMax= 1.93D-03 EMaxC= 1.00D-01 BMatC= 8.56D-05 BMatP= 8.18D-04
 IDIUse=3 WtCom= 9.81D-01 WtEn= 1.93D-02
 Coeff-Com: -0.260D+00 0.126D+01
 Coeff-En:   0.000D+00 0.100D+01
 Coeff:     -0.255D+00 0.125D+01
 Gap=     0.920 Goal=   None    Shift=    0.000
 RMSDP=1.06D-03 MaxDP=7.60D-03 DE=-1.56D-03 OVMax= 0.00D+00

 Cycle   3  Pass 1  IDiag  1:
 E= -152.132591040654     Delta-E=       -0.000222141755 Rises=F Damp=F
 DIIS: error= 5.12D-04 at cycle   3 NSaved=   3.
 NSaved= 3 IEnMin= 3 EnMin= -152.132591040654     IErMin= 3 ErrMin= 5.12D-04
 ErrMax= 5.12D-04 EMaxC= 1.00D-01 BMatC= 5.39D-06 BMatP= 8.56D-05
 IDIUse=3 WtCom= 9.95D-01 WtEn= 5.12D-03
 Coeff-Com: -0.328D-01-0.129D+00 0.116D+01
 Coeff-En:   0.000D+00 0.000D+00 0.100D+01
 Coeff:     -0.326D-01-0.128D+00 0.116D+01
 Gap=     0.919 Goal=   None    Shift=    0.000
 RMSDP=3.21D-04 MaxDP=2.03D-03 DE=-2.22D-04 OVMax= 0.00D+00

 Cycle   4  Pass 1  IDiag  1:
 E= -152.132606698502     Delta-E=       -0.000015657848 Rises=F Damp=F
 DIIS: error= 1.34D-04 at cycle   4 NSaved=   4.
 NSaved= 4 IEnMin= 4 EnMin= -152.132606698502     IErMin= 4 ErrMin= 1.34D-04
 ErrMax= 1.34D-04 EMaxC= 1.00D-01 BMatC= 2.62D-07 BMatP= 5.39D-06
 IDIUse=3 WtCom= 9.99D-01 WtEn= 1.34D-03
 Coeff-Com:  0.147D-01-0.605D-01-0.449D-01 0.109D+01
 Coeff-En:   0.000D+00 0.000D+00 0.000D+00 0.100D+01
 Coeff:      0.147D-01-0.604D-01-0.448D-01 0.109D+01
 Gap=     0.919 Goal=   None    Shift=    0.000
 RMSDP=5.93D-05 MaxDP=3.23D-04 DE=-1.57D-05 OVMax= 0.00D+00

 Cycle   5  Pass 1  IDiag  1:
 E= -152.132607347465     Delta-E=       -0.000000648963 Rises=F Damp=F
 DIIS: error= 1.77D-05 at cycle   5 NSaved=   5.
 NSaved= 5 IEnMin= 5 EnMin= -152.132607347465     IErMin= 5 ErrMin= 1.77D-05
 ErrMax= 1.77D-05 EMaxC= 1.00D-01 BMatC= 1.27D-08 BMatP= 2.62D-07
 IDIUse=1 WtCom= 1.00D+00 WtEn= 0.00D+00
 Coeff-Com: -0.243D-03 0.149D-01-0.524D-01-0.169D+00 0.121D+01
 Coeff:     -0.243D-03 0.149D-01-0.524D-01-0.169D+00 0.121D+01
 Gap=     0.919 Goal=   None    Shift=    0.000
 RMSDP=1.41D-05 MaxDP=7.20D-05 DE=-6.49D-07 OVMax= 0.00D+00

 Cycle   6  Pass 1  IDiag  1:
 E= -152.132607382447     Delta-E=       -0.000000034982 Rises=F Damp=F
 DIIS: error= 3.46D-06 at cycle   6 NSaved=   6.
 NSaved= 6 IEnMin= 6 EnMin= -152.132607382447     IErMin= 6 ErrMin= 3.46D-06
 ErrMax= 3.46D-06 EMaxC= 1.00D-01 BMatC= 4.32D-10 BMatP= 1.27D-08
 IDIUse=1 WtCom= 1.00D+00 WtEn= 0.00D+00
 Coeff-Com: -0.399D-03-0.239D-03 0.959D-02-0.156D-01-0.169D+00 0.118D+01
 Coeff:     -0.399D-03-0.239D-03 0.959D-02-0.156D-01-0.169D+00 0.118D+01
 Gap=     0.919 Goal=   None    Shift=    0.000
 RMSDP=2.55D-06 MaxDP=1.38D-05 DE=-3.50D-08 OVMax= 0.00D+00

 Cycle   7  Pass 1  IDiag  1:
 E= -152.132607383639     Delta-E=       -0.000000001192 Rises=F Damp=F
 DIIS: error= 8.96D-07 at cycle   7 NSaved=   7.
 NSaved= 7 IEnMin= 7 EnMin= -152.132607383639     IErMin= 7 ErrMin= 8.96D-07
 ErrMax= 8.96D-07 EMaxC= 1.00D-01 BMatC= 2.11D-11 BMatP= 4.32D-10
 IDIUse=1 WtCom= 1.00D+00 WtEn= 0.00D+00
 Coeff-Com:  0.950D-04-0.790D-03 0.111D-02 0.108D-01-0.262D-01-0.219D+00
 Coeff-Com:  0.123D+01
 Coeff:      0.950D-04-0.790D-03 0.111D-02 0.108D-01-0.262D-01-0.219D+00
 Coeff:      0.123D+01
 Gap=     0.919 Goal=   None    Shift=    0.000
 RMSDP=6.24D-07 MaxDP=3.55D-06 DE=-1.19D-09 OVMax= 0.00D+00

 Cycle   8  Pass 1  IDiag  1:
 E= -152.132607383698     Delta-E=       -0.000000000058 Rises=F Damp=F
 DIIS: error= 1.87D-07 at cycle   8 NSaved=   8.
 NSaved= 8 IEnMin= 8 EnMin= -152.132607383698     IErMin= 8 ErrMin= 1.87D-07
 ErrMax= 1.87D-07 EMaxC= 1.00D-01 BMatC= 7.74D-13 BMatP= 2.11D-11
 IDIUse=1 WtCom= 1.00D+00 WtEn= 0.00D+00
 Coeff-Com:  0.853D-05 0.208D-04-0.268D-03 0.976D-04 0.527D-02-0.262D-01
 Coeff-Com: -0.432D-01 0.106D+01
 Coeff:      0.853D-05 0.208D-04-0.268D-03 0.976D-04 0.527D-02-0.262D-01
 Coeff:     -0.432D-01 0.106D+01
 Gap=     0.919 Goal=   None    Shift=    0.000
 RMSDP=9.94D-08 MaxDP=7.69D-07 DE=-5.83D-11 OVMax= 0.00D+00

 Cycle   9  Pass 1  IDiag  1:
 E= -152.132607383700     Delta-E=       -0.000000000002 Rises=F Damp=F
 DIIS: error= 8.03D-08 at cycle   9 NSaved=   9.
 NSaved= 9 IEnMin= 9 EnMin= -152.132607383700     IErMin= 9 ErrMin= 8.03D-08
 ErrMax= 8.03D-08 EMaxC= 1.00D-01 BMatC= 1.00D-13 BMatP= 7.74D-13
 IDIUse=1 WtCom= 1.00D+00 WtEn= 0.00D+00
 Coeff-Com: -0.115D-04 0.700D-04-0.291D-04-0.105D-02 0.933D-03 0.284D-01
 Coeff-Com: -0.104D+00-0.310D+00 0.139D+01
 Coeff:     -0.115D-04 0.700D-04-0.291D-04-0.105D-02 0.933D-03 0.284D-01
 Coeff:     -0.104D+00-0.310D+00 0.139D+01
 Gap=     0.919 Goal=   None    Shift=    0.000
 RMSDP=4.82D-08 MaxDP=4.00D-07 DE=-2.07D-12 OVMax= 0.00D+00

 Cycle  10  Pass 1  IDiag  1:
 E= -152.132607383700     Delta-E=        0.000000000000 Rises=F Damp=F
 DIIS: error= 1.59D-08 at cycle  10 NSaved=  10.
 NSaved=10 IEnMin=10 EnMin= -152.132607383700     IErMin=10 ErrMin= 1.59D-08
 ErrMax= 1.59D-08 EMaxC= 1.00D-01 BMatC= 4.09D-15 BMatP= 1.00D-13
 IDIUse=1 WtCom= 1.00D+00 WtEn= 0.00D+00
 Coeff-Com:  0.412D-05-0.279D-04 0.202D-04 0.415D-03-0.570D-03-0.103D-01
 Coeff-Com:  0.438D-01 0.755D-01-0.565D+00 0.146D+01
 Coeff:      0.412D-05-0.279D-04 0.202D-04 0.415D-03-0.570D-03-0.103D-01
 Coeff:      0.438D-01 0.755D-01-0.565D+00 0.146D+01
 Gap=     0.919 Goal=   None    Shift=    0.000
 RMSDP=1.07D-08 MaxDP=8.25D-08 DE=-2.27D-13 OVMax= 0.00D+00

 Cycle  11  Pass 1  IDiag  1:
 E= -152.132607383700     Delta-E=        0.000000000000 Rises=F Damp=F
 DIIS: error= 1.50D-09 at cycle  11 NSaved=  11.
 NSaved=11 IEnMin=11 EnMin= -152.132607383700     IErMin=11 ErrMin= 1.50D-09
 ErrMax= 1.50D-09 EMaxC= 1.00D-01 BMatC= 6.58D-17 BMatP= 4.09D-15
 IDIUse=1 WtCom= 1.00D+00 WtEn= 0.00D+00
 Coeff-Com: -0.977D-06 0.677D-05-0.527D-05-0.101D-03 0.147D-03 0.243D-02
 Coeff-Com: -0.108D-01-0.153D-01 0.137D+00-0.436D+00 0.132D+01
 Coeff:     -0.977D-06 0.677D-05-0.527D-05-0.101D-03 0.147D-03 0.243D-02
 Coeff:     -0.108D-01-0.153D-01 0.137D+00-0.436D+00 0.132D+01
 Gap=     0.919 Goal=   None    Shift=    0.000
 RMSDP=1.13D-09 MaxDP=6.34D-09 DE=-1.99D-13 OVMax= 0.00D+00

 SCF Done:  E(RHF) =  -152.132607384     A.U. after   11 cycles
             Convg  =    0.1130D-08             -V/T =  2.0087
 KE= 1.508259949956D+02 PE=-5.187283141716D+02 EE= 1.350488130506D+02
 Leave Link  502 at Thu Jan 24 17:22:17 2019, MaxMem=  134217728 cpu:       0.1
 (Enter /home/programs/G09_64/g09/l701.exe)
 Compute integral first derivatives.
 ... and contract with generalized density number  0.
 Leave Link  701 at Thu Jan 24 17:22:17 2019, MaxMem=  134217728 cpu:       0.1
 (Enter /home/programs/G09_64/g09/l702.exe)
 L702 exits ... SP integral derivatives will be done elsewhere.
 Leave Link  702 at Thu Jan 24 17:22:17 2019, MaxMem=  134217728 cpu:       0.1
 (Enter /home/programs/G09_64/g09/l703.exe)
 Compute integral first derivatives, UseDBF=F ICtDFT=           0.
 Integral derivatives from FoFDir, PRISM(SPDF).
 Calling FoFJK, ICntrl=      2127 FMM=F ISym2X=0 I1Cent= 0 IOpClX= 0 NMat=1 NMatS=1 NMatT=0.
 FoFCou: FMM=F IPFlag=           0 FMFlag=      100000 FMFlg1=         800
         NFxFlg=           0 DoJE=F BraDBF=F KetDBF=F FulRan=T
         Omega=  0.000000  0.000000  1.000000  0.000000  0.000000 ICntrl=    2127 IOpCl=  0
         NMat0=    1 NMatS0=    1 NMatT0=    0 NMatD0=    1 NMtDS0=    0 NMtDT0=    0
         I1Cent=           0 NGrid=           0.
 Symmetry not used in FoFCou.
 Leave Link  703 at Thu Jan 24 17:22:17 2019, MaxMem=  134217728 cpu:       0.1
 (Enter /home/programs/G09_64/g09/l716.exe)
 Dipole        =-4.39695486D-01-6.59513264D-02 4.10689251D-01
 -------------------------------------------------------------------
 Center     Atomic                   Forces (Hartrees/Bohr)
 Number     Number              X              Y              Z
 -------------------------------------------------------------------
      1        6          -0.006485427    0.006284642   -0.005653964
      2        6           0.005963004    0.000597653   -0.000321396
      3        1           0.001152469    0.001981163    0.000145852
      4        1           0.000766241    0.000157492   -0.000476751
      5        1           0.000776709   -0.000167300    0.000729173
      6        1          -0.001706264   -0.001301911    0.001523926
      7        1           0.000922143   -0.002801073   -0.001415983
      8        8          -0.007587166   -0.005357732    0.011247935
      9        1           0.006198290    0.000607066   -0.005778792
 -------------------------------------------------------------------
 Cartesian Forces:  Max     0.011247935 RMS     0.004124981
 Leave Link  716 at Thu Jan 24 17:22:17 2019, MaxMem=  134217728 cpu:       0.0
 (Enter /home/programs/G09_64/g09/l103.exe)

 GradGradGradGradGradGradGradGradGradGradGradGradGradGradGradGradGradGrad
 Berny optimization.
 Using GEDIIS/GDIIS optimizer.
 Internal  Forces:  Max     0.012547043 RMS     0.003087184
 Search for a local minimum.
 Step number   2 out of a maximum of   43
 All quantities printed in internal units (Hartrees-Bohrs-Radians)
 RMS Force = .30872D-02 SwitMx=.10000D-02 MixMth= 1
 Mixed Optimization -- RFO/linear search
 Update second derivatives using D2CorX and points    1    2
 DE= -3.37D-03 DEPred=-5.05D-03 R= 6.66D-01
 SS=  1.41D+00  RLast= 1.86D-01 DXNew= 5.0454D-01 5.5694D-01
 Trust test= 6.66D-01 RLast= 1.86D-01 DXMaxT set to 5.05D-01
 ITU=  1  0
 Use linear search instead of GDIIS.
     Eigenvalues ---    0.00643   0.01519   0.04837   0.05752   0.05763
     Eigenvalues ---    0.06080   0.11669   0.14085   0.15883   0.16000
     Eigenvalues ---    0.16000   0.19041   0.22321   0.33918   0.34936
     Eigenvalues ---    0.35051   0.35140   0.35303   0.36714   0.42537
     Eigenvalues ---    0.56788
 RFO step:  Lambda=-4.64813221D-04 EMin= 6.43012976D-03
 Quartic linear search produced a step of -0.23363.
 Iteration  1 RMS(Cart)=  0.01547823 RMS(Int)=  0.00029874
 Iteration  2 RMS(Cart)=  0.00025957 RMS(Int)=  0.00005569
 Iteration  3 RMS(Cart)=  0.00000005 RMS(Int)=  0.00005569
 Variable       Old X    -DE/DX   Delta X   Delta X   Delta X     New X
                                 (Linear)    (Quad)   (Total)
    R1        2.94335  -0.00872  -0.02131   0.00437  -0.01694   2.92642
    R2        2.07192  -0.00203  -0.00464   0.00118  -0.00345   2.06847
    R3        2.07944  -0.00263  -0.00370  -0.00137  -0.00507   2.07437
    R4        2.71203   0.00085  -0.00977   0.01328   0.00350   2.71553
    R5        2.05077   0.00030   0.00090  -0.00043   0.00047   2.05124
    R6        2.05128   0.00028   0.00013   0.00047   0.00059   2.05188
    R7        2.05233   0.00062   0.00100   0.00015   0.00115   2.05348
    R8        1.88312  -0.00527  -0.01761   0.01408  -0.00353   1.87959
    A1        1.90777  -0.00071   0.00463  -0.00640  -0.00167   1.90610
    A2        1.90399   0.00122   0.00532  -0.00603  -0.00077   1.90322
    A3        1.98535  -0.00309  -0.00449  -0.00747  -0.01205   1.97330
    A4        1.86527   0.00042   0.00151   0.00710   0.00876   1.87403
    A5        1.84879   0.00269  -0.00255   0.02072   0.01817   1.86696
    A6        1.94794  -0.00032  -0.00427  -0.00632  -0.01073   1.93721
    A7        1.93343  -0.00295  -0.00013  -0.01500  -0.01516   1.91827
    A8        1.93015  -0.00050  -0.00050  -0.00126  -0.00178   1.92836
    A9        1.93427  -0.00051   0.00051  -0.00246  -0.00196   1.93231
   A10        1.89109   0.00163   0.00107   0.00541   0.00645   1.89754
   A11        1.88529   0.00167  -0.00133   0.00858   0.00721   1.89250
   A12        1.88806   0.00083   0.00039   0.00557   0.00597   1.89403
   A13        1.77665   0.01255   0.02799   0.02664   0.05462   1.83127
    D1       -1.02774   0.00008  -0.00459   0.00738   0.00284  -1.02490
    D2        1.06927  -0.00014  -0.00366   0.00352  -0.00008   1.06919
    D3       -3.12017   0.00025  -0.00317   0.00808   0.00495  -3.11522
    D4        1.00611   0.00087   0.00315   0.00890   0.01198   1.01808
    D5        3.10311   0.00065   0.00408   0.00504   0.00906   3.11217
    D6       -1.08632   0.00104   0.00457   0.00960   0.01409  -1.07224
    D7       -3.08993  -0.00088  -0.00166  -0.00965  -0.01128  -3.10122
    D8       -0.99293  -0.00109  -0.00072  -0.01351  -0.01420  -1.00713
    D9        1.10082  -0.00070  -0.00023  -0.00895  -0.00917   1.09165
   D10       -1.04438  -0.00007   0.00151  -0.00023   0.00120  -1.04317
   D11       -3.14020   0.00080   0.00007  -0.00189  -0.00179   3.14119
   D12        1.11917  -0.00109   0.00185  -0.01912  -0.01721   1.10196
         Item               Value     Threshold  Converged?
 Maximum Force            0.012547     0.000015     NO 
 RMS     Force            0.003087     0.000010     NO 
 Maximum Displacement     0.047446     0.000060     NO 
 RMS     Displacement     0.015387     0.000040     NO 
 Predicted change in Energy=-5.488818D-04
 GradGradGradGradGradGradGradGradGradGradGradGradGradGradGradGradGradGrad

 Leave Link  103 at Thu Jan 24 17:22:17 2019, MaxMem=  134217728 cpu:       0.0
 (Enter /home/programs/G09_64/g09/l202.exe)
                          Input orientation:                          
 ---------------------------------------------------------------------
 Center     Atomic      Atomic             Coordinates (Angstroms)
 Number     Number       Type             X           Y           Z
 ---------------------------------------------------------------------
      1          6           0        0.030812    0.563164    0.052647
      2          6           0       -1.283012   -0.254085   -0.011491
      3          1           0       -2.136626    0.411311    0.071157
      4          1           0       -1.350338   -0.792132   -0.952208
      5          1           0       -1.328194   -0.973535    0.801631
      6          1           0        0.038531    1.296984   -0.759492
      7          1           0        0.060384    1.120219    0.998044
      8          8           0        1.206558   -0.248051   -0.103913
      9          1           0        1.169307   -0.900507    0.645896
 ---------------------------------------------------------------------
                    Distance matrix (angstroms):
                    1          2          3          4          5
     1  C    0.000000
     2  C    1.548594   0.000000
     3  H    2.172830   1.085467   0.000000
     4  H    2.180398   1.085806   1.764596   0.000000
     5  H    2.183877   1.086654   1.762087   1.763334   0.000000
     6  H    1.094588   2.170668   2.491125   2.516049   3.075760
     7  H    1.097707   2.170849   2.487675   3.074200   2.520026
     8  O    1.436996   2.491292   3.412080   2.748335   2.787706
     9  H    1.946908   2.619903   3.602831   2.985682   2.503418
                    6          7          8          9
     6  H    0.000000
     7  H    1.766538   0.000000
     8  O    2.044799   2.097662   0.000000
     9  H    2.843016   2.331749   0.994637   0.000000
 Symmetry turned off by external request.
 Stoichiometry    C2H6O
 Framework group  C1[X(C2H6O)]
 Deg. of freedom    21
 Full point group                 C1      NOp   1
 Rotational constants (GHZ):     34.0130161      8.9606861      7.9245590
 Leave Link  202 at Thu Jan 24 17:22:17 2019, MaxMem=  134217728 cpu:       0.0
 (Enter /home/programs/G09_64/g09/l301.exe)
 Standard basis: STO-3G (5D, 7F)
 Ernie: Thresh=  0.10000D-02 Tol=  0.10000D-05 Strict=F.
 Integral buffers will be    131072 words long.
 Raffenetti 1 integral format.
 Two-electron integral symmetry is turned off.
    21 basis functions,    63 primitive gaussians,    21 cartesian basis functions
    13 alpha electrons       13 beta electrons
       nuclear repulsion energy        80.8596049862 Hartrees.
 IExCor=    0 DFT=F Ex=HF Corr=None ExCW=0 ScaHFX=  1.000000
 ScaDFX=  1.000000  1.000000  1.000000  1.000000 ScalE2=  1.000000  1.000000
 IRadAn=      0 IRanWt=     -1 IRanGd=            0 ICorTp=0
 NAtoms=    9 NActive=    9 NUniq=    9 SFac= 1.00D+00 NAtFMM=   50 NAOKFM=F Big=F
 Leave Link  301 at Thu Jan 24 17:22:17 2019, MaxMem=  134217728 cpu:       0.1
 (Enter /home/programs/G09_64/g09/l302.exe)
 NPDir=0 NMtPBC=     1 NCelOv=     1 NCel=       1 NClECP=     1 NCelD=      1
         NCelK=      1 NCelE2=     1 NClLst=     1 CellRange=     0.0.
 One-electron integrals computed using PRISM.
 NBasis=    21 RedAO= T  NBF=    21
 NBsUse=    21 1.00D-06 NBFU=    21
 Leave Link  302 at Thu Jan 24 17:22:18 2019, MaxMem=  134217728 cpu:       0.1
 (Enter /home/programs/G09_64/g09/l303.exe)
 DipDrv:  MaxL=1.
 Leave Link  303 at Thu Jan 24 17:22:18 2019, MaxMem=  134217728 cpu:       0.0
 (Enter /home/programs/G09_64/g09/l401.exe)
 Initial guess read from the read-write file.
 B after Tr=     0.000000    0.000000    0.000000
         Rot=    1.000000    0.000000    0.000000    0.000000 Ang=   0.00 deg.
 Guess basis will be translated and rotated to current coordinates.
 Generating alternative initial guess.
 Harris functional with IExCor=  205 diagonalized for initial guess.
 ExpMin= 1.69D-01 ExpMax= 1.31D+02 ExpMxC= 1.31D+02 IAcc=1 IRadAn=         1 AccDes= 0.00D+00
 HarFok:  IExCor=  205 AccDes= 0.00D+00 IRadAn=         1 IDoV= 1
 ScaDFX=  1.000000  1.000000  1.000000  1.000000
 FoFCou: FMM=F IPFlag=           0 FMFlag=      100000 FMFlg1=           0
         NFxFlg=           0 DoJE=T BraDBF=F KetDBF=T FulRan=T
         Omega=  0.000000  0.000000  1.000000  0.000000  0.000000 ICntrl=     500 IOpCl=  0
         NMat0=    1 NMatS0=    1 NMatT0=    0 NMatD0=    1 NMtDS0=    0 NMtDT0=    0
         I1Cent=           4 NGrid=           0.
 Symmetry not used in FoFCou.
 Harris En= -152.347638361388    
 Leave Link  401 at Thu Jan 24 17:22:18 2019, MaxMem=  134217728 cpu:       0.3
 (Enter /home/programs/G09_64/g09/l502.exe)
 Closed shell SCF:
 Requested convergence on RMS density matrix=1.00D-08 within 128 cycles.
 Requested convergence on MAX density matrix=1.00D-06.
 Requested convergence on             energy=1.00D-06.
 No special actions if energy rises.
 Using DIIS extrapolation, IDIIS=  1040.
 Two-electron integral symmetry not used.
 Keep R1 ints in memory in canonical form, NReq=846549.
 IEnd=       19739 IEndB=       19739 NGot=   134217728 MDV=   134188268
 LenX=   134188268 LenY=   134187386
 Symmetry not used in FoFDir.
 MinBra= 0 MaxBra= 1 Meth= 1.
 IRaf=       0 NMat=   1 IRICut=       1 DoRegI=T DoRafI=F ISym2E= 0 JSym2E=0.

 Cycle   1  Pass 1  IDiag  1:
 E= -152.132810228482    
 DIIS: error= 1.45D-03 at cycle   1 NSaved=   1.
 NSaved= 1 IEnMin= 1 EnMin= -152.132810228482     IErMin= 1 ErrMin= 1.45D-03
 ErrMax= 1.45D-03 EMaxC= 1.00D-01 BMatC= 6.02D-05 BMatP= 6.02D-05
 IDIUse=3 WtCom= 9.85D-01 WtEn= 1.45D-02
 Coeff-Com:  0.100D+01
 Coeff-En:   0.100D+01
 Coeff:      0.100D+01
 Gap=     0.914 Goal=   None    Shift=    0.000
 GapD=    0.914 DampG=2.000 DampE=1.000 DampFc=2.0000 IDamp=-1.
 RMSDP=7.07D-04 MaxDP=4.65D-03              OVMax= 0.00D+00

 Cycle   2  Pass 1  IDiag  1:
 E= -152.132939273531     Delta-E=       -0.000129045049 Rises=F Damp=F
 DIIS: error= 5.08D-04 at cycle   2 NSaved=   2.
 NSaved= 2 IEnMin= 2 EnMin= -152.132939273531     IErMin= 2 ErrMin= 5.08D-04
 ErrMax= 5.08D-04 EMaxC= 1.00D-01 BMatC= 7.83D-06 BMatP= 6.02D-05
 IDIUse=3 WtCom= 9.95D-01 WtEn= 5.08D-03
 Coeff-Com: -0.364D+00 0.136D+01
 Coeff-En:   0.000D+00 0.100D+01
 Coeff:     -0.363D+00 0.136D+01
 Gap=     0.912 Goal=   None    Shift=    0.000
 RMSDP=3.55D-04 MaxDP=2.49D-03 DE=-1.29D-04 OVMax= 0.00D+00

 Cycle   3  Pass 1  IDiag  1:
 E= -152.132961079234     Delta-E=       -0.000021805702 Rises=F Damp=F
 DIIS: error= 1.22D-04 at cycle   3 NSaved=   3.
 NSaved= 3 IEnMin= 3 EnMin= -152.132961079234     IErMin= 3 ErrMin= 1.22D-04
 ErrMax= 1.22D-04 EMaxC= 1.00D-01 BMatC= 3.63D-07 BMatP= 7.83D-06
 IDIUse=3 WtCom= 9.99D-01 WtEn= 1.22D-03
 Coeff-Com: -0.336D-01-0.827D-01 0.112D+01
 Coeff-En:   0.000D+00 0.000D+00 0.100D+01
 Coeff:     -0.335D-01-0.826D-01 0.112D+01
 Gap=     0.912 Goal=   None    Shift=    0.000
 RMSDP=8.47D-05 MaxDP=5.60D-04 DE=-2.18D-05 OVMax= 0.00D+00

 Cycle   4  Pass 1  IDiag  1:
 E= -152.132962167207     Delta-E=       -0.000001087973 Rises=F Damp=F
 DIIS: error= 3.10D-05 at cycle   4 NSaved=   4.
 NSaved= 4 IEnMin= 4 EnMin= -152.132962167207     IErMin= 4 ErrMin= 3.10D-05
 ErrMax= 3.10D-05 EMaxC= 1.00D-01 BMatC= 2.05D-08 BMatP= 3.63D-07
 IDIUse=1 WtCom= 1.00D+00 WtEn= 0.00D+00
 Coeff-Com:  0.210D-01-0.653D-01-0.921D-01 0.114D+01
 Coeff:      0.210D-01-0.653D-01-0.921D-01 0.114D+01
 Gap=     0.912 Goal=   None    Shift=    0.000
 RMSDP=1.83D-05 MaxDP=1.07D-04 DE=-1.09D-06 OVMax= 0.00D+00

 Cycle   5  Pass 1  IDiag  1:
 E= -152.132962222771     Delta-E=       -0.000000055564 Rises=F Damp=F
 DIIS: error= 4.47D-06 at cycle   5 NSaved=   5.
 NSaved= 5 IEnMin= 5 EnMin= -152.132962222771     IErMin= 5 ErrMin= 4.47D-06
 ErrMax= 4.47D-06 EMaxC= 1.00D-01 BMatC= 9.97D-10 BMatP= 2.05D-08
 IDIUse=1 WtCom= 1.00D+00 WtEn= 0.00D+00
 Coeff-Com: -0.112D-02 0.130D-01-0.441D-01-0.154D+00 0.119D+01
 Coeff:     -0.112D-02 0.130D-01-0.441D-01-0.154D+00 0.119D+01
 Gap=     0.912 Goal=   None    Shift=    0.000
 RMSDP=4.30D-06 MaxDP=2.42D-05 DE=-5.56D-08 OVMax= 0.00D+00

 Cycle   6  Pass 1  IDiag  1:
 E= -152.132962225788     Delta-E=       -0.000000003017 Rises=F Damp=F
 DIIS: error= 1.24D-06 at cycle   6 NSaved=   6.
 NSaved= 6 IEnMin= 6 EnMin= -152.132962225788     IErMin= 6 ErrMin= 1.24D-06
 ErrMax= 1.24D-06 EMaxC= 1.00D-01 BMatC= 5.93D-11 BMatP= 9.97D-10
 IDIUse=1 WtCom= 1.00D+00 WtEn= 0.00D+00
 Coeff-Com: -0.494D-03-0.687D-03 0.151D-01-0.118D-01-0.295D+00 0.129D+01
 Coeff:     -0.494D-03-0.687D-03 0.151D-01-0.118D-01-0.295D+00 0.129D+01
 Gap=     0.912 Goal=   None    Shift=    0.000
 RMSDP=1.11D-06 MaxDP=7.76D-06 DE=-3.02D-09 OVMax= 0.00D+00

 Cycle   7  Pass 1  IDiag  1:
 E= -152.132962225979     Delta-E=       -0.000000000191 Rises=F Damp=F
 DIIS: error= 3.32D-07 at cycle   7 NSaved=   7.
 NSaved= 7 IEnMin= 7 EnMin= -152.132962225979     IErMin= 7 ErrMin= 3.32D-07
 ErrMax= 3.32D-07 EMaxC= 1.00D-01 BMatC= 3.06D-12 BMatP= 5.93D-11
 IDIUse=1 WtCom= 1.00D+00 WtEn= 0.00D+00
 Coeff-Com:  0.140D-03-0.724D-03 0.587D-03 0.106D-01-0.265D-01-0.190D+00
 Coeff-Com:  0.121D+01
 Coeff:      0.140D-03-0.724D-03 0.587D-03 0.106D-01-0.265D-01-0.190D+00
 Coeff:      0.121D+01
 Gap=     0.912 Goal=   None    Shift=    0.000
 RMSDP=2.57D-07 MaxDP=1.99D-06 DE=-1.91D-10 OVMax= 0.00D+00

 Cycle   8  Pass 1  IDiag  1:
 E= -152.132962225989     Delta-E=       -0.000000000010 Rises=F Damp=F
 DIIS: error= 7.54D-08 at cycle   8 NSaved=   8.
 NSaved= 8 IEnMin= 8 EnMin= -152.132962225989     IErMin= 8 ErrMin= 7.54D-08
 ErrMax= 7.54D-08 EMaxC= 1.00D-01 BMatC= 1.94D-13 BMatP= 3.06D-12
 IDIUse=1 WtCom= 1.00D+00 WtEn= 0.00D+00
 Coeff-Com: -0.115D-04 0.202D-03-0.858D-03-0.165D-02 0.189D-01-0.193D-01
 Coeff-Com: -0.255D+00 0.126D+01
 Coeff:     -0.115D-04 0.202D-03-0.858D-03-0.165D-02 0.189D-01-0.193D-01
 Coeff:     -0.255D+00 0.126D+01
 Gap=     0.912 Goal=   None    Shift=    0.000
 RMSDP=6.18D-08 MaxDP=5.12D-07 DE=-1.01D-11 OVMax= 0.00D+00

 Cycle   9  Pass 1  IDiag  1:
 E= -152.132962225989     Delta-E=        0.000000000000 Rises=F Damp=F
 DIIS: error= 1.74D-08 at cycle   9 NSaved=   9.
 NSaved= 9 IEnMin= 9 EnMin= -152.132962225989     IErMin= 9 ErrMin= 1.74D-08
 ErrMax= 1.74D-08 EMaxC= 1.00D-01 BMatC= 1.28D-14 BMatP= 1.94D-13
 IDIUse=1 WtCom= 1.00D+00 WtEn= 0.00D+00
 Coeff-Com: -0.129D-04 0.592D-04-0.171D-04-0.803D-03 0.101D-02 0.184D-01
 Coeff-Com: -0.878D-01-0.100D+00 0.117D+01
 Coeff:     -0.129D-04 0.592D-04-0.171D-04-0.803D-03 0.101D-02 0.184D-01
 Coeff:     -0.878D-01-0.100D+00 0.117D+01
 Gap=     0.912 Goal=   None    Shift=    0.000
 RMSDP=1.71D-08 MaxDP=1.40D-07 DE=-4.83D-13 OVMax= 0.00D+00

 Cycle  10  Pass 1  IDiag  1:
 E= -152.132962225990     Delta-E=        0.000000000000 Rises=F Damp=F
 DIIS: error= 3.27D-09 at cycle  10 NSaved=  10.
 NSaved=10 IEnMin=10 EnMin= -152.132962225990     IErMin=10 ErrMin= 3.27D-09
 ErrMax= 3.27D-09 EMaxC= 1.00D-01 BMatC= 3.27D-16 BMatP= 1.28D-14
 IDIUse=1 WtCom= 1.00D+00 WtEn= 0.00D+00
 Coeff-Com:  0.392D-05-0.213D-04 0.206D-04 0.284D-03-0.745D-03-0.507D-02
 Coeff-Com:  0.330D-01-0.711D-02-0.341D+00 0.132D+01
 Coeff:      0.392D-05-0.213D-04 0.206D-04 0.284D-03-0.745D-03-0.507D-02
 Coeff:      0.330D-01-0.711D-02-0.341D+00 0.132D+01
 Gap=     0.912 Goal=   None    Shift=    0.000
 RMSDP=2.48D-09 MaxDP=1.72D-08 DE=-1.42D-13 OVMax= 0.00D+00

 SCF Done:  E(RHF) =  -152.132962226     A.U. after   10 cycles
             Convg  =    0.2479D-08             -V/T =  2.0086
 KE= 1.508340895108D+02 PE=-5.190379534569D+02 EE= 1.352112967339D+02
 Leave Link  502 at Thu Jan 24 17:22:18 2019, MaxMem=  134217728 cpu:       0.1
 (Enter /home/programs/G09_64/g09/l701.exe)
 Compute integral first derivatives.
 ... and contract with generalized density number  0.
 Leave Link  701 at Thu Jan 24 17:22:18 2019, MaxMem=  134217728 cpu:       0.2
 (Enter /home/programs/G09_64/g09/l702.exe)
 L702 exits ... SP integral derivatives will be done elsewhere.
 Leave Link  702 at Thu Jan 24 17:22:18 2019, MaxMem=  134217728 cpu:       0.0
 (Enter /home/programs/G09_64/g09/l703.exe)
 Compute integral first derivatives, UseDBF=F ICtDFT=           0.
 Integral derivatives from FoFDir, PRISM(SPDF).
 Calling FoFJK, ICntrl=      2127 FMM=F ISym2X=0 I1Cent= 0 IOpClX= 0 NMat=1 NMatS=1 NMatT=0.
 FoFCou: FMM=F IPFlag=           0 FMFlag=      100000 FMFlg1=         800
         NFxFlg=           0 DoJE=F BraDBF=F KetDBF=F FulRan=T
         Omega=  0.000000  0.000000  1.000000  0.000000  0.000000 ICntrl=    2127 IOpCl=  0
         NMat0=    1 NMatS0=    1 NMatT0=    0 NMatD0=    1 NMtDS0=    0 NMtDT0=    0
         I1Cent=           0 NGrid=           0.
 Symmetry not used in FoFCou.
 Leave Link  703 at Thu Jan 24 17:22:18 2019, MaxMem=  134217728 cpu:       0.2
 (Enter /home/programs/G09_64/g09/l716.exe)
 Dipole        =-4.32514069D-01-6.42688579D-02 4.08763309D-01
 -------------------------------------------------------------------
 Center     Atomic                   Forces (Hartrees/Bohr)
 Number     Number              X              Y              Z
 -------------------------------------------------------------------
      1        6          -0.000236038   -0.003886026    0.002988562
      2        6           0.001112090    0.000769544   -0.000178142
      3        1          -0.000329347   -0.000200911   -0.000016246
      4        1          -0.000011772    0.000067354    0.000176495
      5        1          -0.000067360    0.000162447   -0.000154846
      6        1           0.001575917   -0.001275704    0.000287508
      7        1           0.000061199    0.000211859   -0.000351311
      8        8           0.000450301   -0.000212128   -0.000507296
      9        1          -0.002554992    0.004363563   -0.002244724
 -------------------------------------------------------------------
 Cartesian Forces:  Max     0.004363563 RMS     0.001511280
 Leave Link  716 at Thu Jan 24 17:22:18 2019, MaxMem=  134217728 cpu:       0.0
 (Enter /home/programs/G09_64/g09/l103.exe)

 GradGradGradGradGradGradGradGradGradGradGradGradGradGradGradGradGradGrad
 Berny optimization.
 Using GEDIIS/GDIIS optimizer.
 Internal  Forces:  Max     0.006148634 RMS     0.001576757
 Search for a local minimum.
 Step number   3 out of a maximum of   43
 All quantities printed in internal units (Hartrees-Bohrs-Radians)
 RMS Force = .15768D-02 SwitMx=.10000D-02 MixMth= 1
 Mixed Optimization -- RFO/linear search
 Update second derivatives using D2CorX and points    1    2    3
 DE= -3.55D-04 DEPred=-5.49D-04 R= 6.46D-01
 SS=  1.41D+00  RLast= 7.44D-02 DXNew= 8.4853D-01 2.2333D-01
 Trust test= 6.46D-01 RLast= 7.44D-02 DXMaxT set to 5.05D-01
 ITU=  1  1  0
 Use linear search instead of GDIIS.
     Eigenvalues ---    0.00643   0.01514   0.05147   0.05781   0.05858
     Eigenvalues ---    0.06033   0.11855   0.14076   0.15597   0.16000
     Eigenvalues ---    0.16002   0.21575   0.27935   0.33911   0.34882
     Eigenvalues ---    0.35133   0.35255   0.35307   0.35697   0.46701
     Eigenvalues ---    0.58838
 RFO step:  Lambda=-1.06396333D-04 EMin= 6.42875166D-03
 Quartic linear search produced a step of -0.26887.
 Iteration  1 RMS(Cart)=  0.00638333 RMS(Int)=  0.00003478
 Iteration  2 RMS(Cart)=  0.00002887 RMS(Int)=  0.00000996
 Iteration  3 RMS(Cart)=  0.00000000 RMS(Int)=  0.00000996
 Variable       Old X    -DE/DX   Delta X   Delta X   Delta X     New X
                                 (Linear)    (Quad)   (Total)
    R1        2.92642  -0.00101   0.00455  -0.00953  -0.00498   2.92144
    R2        2.06847  -0.00106   0.00093  -0.00348  -0.00255   2.06592
    R3        2.07437  -0.00019   0.00136  -0.00248  -0.00112   2.07325
    R4        2.71553  -0.00377  -0.00094  -0.00472  -0.00566   2.70987
    R5        2.05124   0.00013  -0.00013   0.00047   0.00034   2.05158
    R6        2.05188  -0.00019  -0.00016  -0.00011  -0.00027   2.05161
    R7        2.05348  -0.00022  -0.00031   0.00008  -0.00023   2.05325
    R8        1.87959  -0.00446   0.00095  -0.00738  -0.00643   1.87316
    A1        1.90610   0.00077   0.00045   0.00128   0.00171   1.90780
    A2        1.90322   0.00002   0.00021   0.00392   0.00415   1.90737
    A3        1.97330   0.00097   0.00324  -0.00205   0.00120   1.97450
    A4        1.87403  -0.00001  -0.00236   0.00349   0.00111   1.87514
    A5        1.86696  -0.00182  -0.00489  -0.00599  -0.01089   1.85607
    A6        1.93721   0.00002   0.00288  -0.00049   0.00241   1.93962
    A7        1.91827   0.00052   0.00408  -0.00351   0.00058   1.91885
    A8        1.92836  -0.00005   0.00048  -0.00100  -0.00052   1.92784
    A9        1.93231  -0.00001   0.00053  -0.00090  -0.00037   1.93193
   A10        1.89754  -0.00020  -0.00173   0.00187   0.00015   1.89769
   A11        1.89250  -0.00024  -0.00194   0.00195   0.00002   1.89253
   A12        1.89403  -0.00003  -0.00160   0.00176   0.00016   1.89419
   A13        1.83127  -0.00615  -0.01469  -0.00316  -0.01785   1.81342
    D1       -1.02490  -0.00052  -0.00076  -0.00316  -0.00393  -1.02883
    D2        1.06919  -0.00047   0.00002  -0.00372  -0.00371   1.06548
    D3       -3.11522  -0.00055  -0.00133  -0.00276  -0.00409  -3.11931
    D4        1.01808  -0.00009  -0.00322   0.00397   0.00075   1.01884
    D5        3.11217  -0.00004  -0.00244   0.00341   0.00098   3.11314
    D6       -1.07224  -0.00012  -0.00379   0.00437   0.00059  -1.07165
    D7       -3.10122   0.00064   0.00303   0.00481   0.00785  -3.09337
    D8       -1.00713   0.00068   0.00382   0.00425   0.00807  -0.99906
    D9        1.09165   0.00061   0.00247   0.00521   0.00768   1.09933
   D10       -1.04317  -0.00024  -0.00032  -0.00860  -0.00889  -1.05207
   D11        3.14119  -0.00055   0.00048  -0.00493  -0.00445   3.13674
   D12        1.10196   0.00051   0.00463  -0.00533  -0.00073   1.10123
         Item               Value     Threshold  Converged?
 Maximum Force            0.006149     0.000015     NO 
 RMS     Force            0.001577     0.000010     NO 
 Maximum Displacement     0.020635     0.000060     NO 
 RMS     Displacement     0.006389     0.000040     NO 
 Predicted change in Energy=-1.073461D-04
 GradGradGradGradGradGradGradGradGradGradGradGradGradGradGradGradGradGrad

 Leave Link  103 at Thu Jan 24 17:22:18 2019, MaxMem=  134217728 cpu:       0.0
 (Enter /home/programs/G09_64/g09/l202.exe)
                          Input orientation:                          
 ---------------------------------------------------------------------
 Center     Atomic      Atomic             Coordinates (Angstroms)
 Number     Number       Type             X           Y           Z
 ---------------------------------------------------------------------
      1          6           0        0.030388    0.560464    0.055395
      2          6           0       -1.281567   -0.254632   -0.010807
      3          1           0       -2.135453    0.410845    0.070750
      4          1           0       -1.347200   -0.792257   -0.951722
      5          1           0       -1.327913   -0.974204    0.801980
      6          1           0        0.043182    1.291509   -0.757363
      7          1           0        0.063267    1.118057    0.999678
      8          8           0        1.204046   -0.246825   -0.109429
      9          1           0        1.158674   -0.889588    0.643789
 ---------------------------------------------------------------------
                    Distance matrix (angstroms):
                    1          2          3          4          5
     1  C    0.000000
     2  C    1.545959   0.000000
     3  H    2.171057   1.085649   0.000000
     4  H    2.177587   1.085665   1.764723   0.000000
     5  H    2.181186   1.086533   1.762151   1.763220   0.000000
     6  H    1.093237   2.168607   2.491544   2.512572   3.073257
     7  H    1.097115   2.171159   2.489463   3.073545   2.520321
     8  O    1.434000   2.487581   3.408409   2.741498   2.787573
     9  H    1.929219   2.605079   3.587586   2.972294   2.493050
                    6          7          8          9
     6  H    0.000000
     7  H    1.765696   0.000000
     8  O    2.033198   2.096282   0.000000
     9  H    2.822186   2.314565   0.991232   0.000000
 Symmetry turned off by external request.
 Stoichiometry    C2H6O
 Framework group  C1[X(C2H6O)]
 Deg. of freedom    21
 Full point group                 C1      NOp   1
 Rotational constants (GHZ):     34.1675104      8.9872438      7.9556758
 Leave Link  202 at Thu Jan 24 17:22:18 2019, MaxMem=  134217728 cpu:       0.0
 (Enter /home/programs/G09_64/g09/l301.exe)
 Standard basis: STO-3G (5D, 7F)
 Ernie: Thresh=  0.10000D-02 Tol=  0.10000D-05 Strict=F.
 Integral buffers will be    131072 words long.
 Raffenetti 1 integral format.
 Two-electron integral symmetry is turned off.
    21 basis functions,    63 primitive gaussians,    21 cartesian basis functions
    13 alpha electrons       13 beta electrons
       nuclear repulsion energy        81.0047313123 Hartrees.
 IExCor=    0 DFT=F Ex=HF Corr=None ExCW=0 ScaHFX=  1.000000
 ScaDFX=  1.000000  1.000000  1.000000  1.000000 ScalE2=  1.000000  1.000000
 IRadAn=      0 IRanWt=     -1 IRanGd=            0 ICorTp=0
 NAtoms=    9 NActive=    9 NUniq=    9 SFac= 1.00D+00 NAtFMM=   50 NAOKFM=F Big=F
 Leave Link  301 at Thu Jan 24 17:22:18 2019, MaxMem=  134217728 cpu:       0.1
 (Enter /home/programs/G09_64/g09/l302.exe)
 NPDir=0 NMtPBC=     1 NCelOv=     1 NCel=       1 NClECP=     1 NCelD=      1
         NCelK=      1 NCelE2=     1 NClLst=     1 CellRange=     0.0.
 One-electron integrals computed using PRISM.
 NBasis=    21 RedAO= T  NBF=    21
 NBsUse=    21 1.00D-06 NBFU=    21
 Leave Link  302 at Thu Jan 24 17:22:19 2019, MaxMem=  134217728 cpu:       0.1
 (Enter /home/programs/G09_64/g09/l303.exe)
 DipDrv:  MaxL=1.
 Leave Link  303 at Thu Jan 24 17:22:19 2019, MaxMem=  134217728 cpu:       0.0
 (Enter /home/programs/G09_64/g09/l401.exe)
 Initial guess read from the read-write file.
 B after Tr=     0.000000    0.000000    0.000000
         Rot=    1.000000    0.000000    0.000000    0.000000 Ang=   0.00 deg.
 Guess basis will be translated and rotated to current coordinates.
 Generating alternative initial guess.
 Harris functional with IExCor=  205 diagonalized for initial guess.
 ExpMin= 1.69D-01 ExpMax= 1.31D+02 ExpMxC= 1.31D+02 IAcc=1 IRadAn=         1 AccDes= 0.00D+00
 HarFok:  IExCor=  205 AccDes= 0.00D+00 IRadAn=         1 IDoV= 1
 ScaDFX=  1.000000  1.000000  1.000000  1.000000
 FoFCou: FMM=F IPFlag=           0 FMFlag=      100000 FMFlg1=           0
         NFxFlg=           0 DoJE=T BraDBF=F KetDBF=T FulRan=T
         Omega=  0.000000  0.000000  1.000000  0.000000  0.000000 ICntrl=     500 IOpCl=  0
         NMat0=    1 NMatS0=    1 NMatT0=    0 NMatD0=    1 NMtDS0=    0 NMtDT0=    0
         I1Cent=           4 NGrid=           0.
 Symmetry not used in FoFCou.
 Harris En= -152.347486609901    
 Leave Link  401 at Thu Jan 24 17:22:19 2019, MaxMem=  134217728 cpu:       0.3
 (Enter /home/programs/G09_64/g09/l502.exe)
 Closed shell SCF:
 Requested convergence on RMS density matrix=1.00D-08 within 128 cycles.
 Requested convergence on MAX density matrix=1.00D-06.
 Requested convergence on             energy=1.00D-06.
 No special actions if energy rises.
 Using DIIS extrapolation, IDIIS=  1040.
 Two-electron integral symmetry not used.
 Keep R1 ints in memory in canonical form, NReq=846549.
 IEnd=       19739 IEndB=       19739 NGot=   134217728 MDV=   134188268
 LenX=   134188268 LenY=   134187386
 Symmetry not used in FoFDir.
 MinBra= 0 MaxBra= 1 Meth= 1.
 IRaf=       0 NMat=   1 IRICut=       1 DoRegI=T DoRafI=F ISym2E= 0 JSym2E=0.

 Cycle   1  Pass 1  IDiag  1:
 E= -152.133046018065    
 DIIS: error= 3.46D-04 at cycle   1 NSaved=   1.
 NSaved= 1 IEnMin= 1 EnMin= -152.133046018065     IErMin= 1 ErrMin= 3.46D-04
 ErrMax= 3.46D-04 EMaxC= 1.00D-01 BMatC= 7.40D-06 BMatP= 7.40D-06
 IDIUse=3 WtCom= 9.97D-01 WtEn= 3.46D-03
 Coeff-Com:  0.100D+01
 Coeff-En:   0.100D+01
 Coeff:      0.100D+01
 Gap=     0.917 Goal=   None    Shift=    0.000
 RMSDP=2.11D-04 MaxDP=1.21D-03              OVMax= 0.00D+00

 Cycle   2  Pass 1  IDiag  1:
 E= -152.133059439498     Delta-E=       -0.000013421432 Rises=F Damp=F
 DIIS: error= 1.22D-04 at cycle   2 NSaved=   2.
 NSaved= 2 IEnMin= 2 EnMin= -152.133059439498     IErMin= 2 ErrMin= 1.22D-04
 ErrMax= 1.22D-04 EMaxC= 1.00D-01 BMatC= 7.67D-07 BMatP= 7.40D-06
 IDIUse=3 WtCom= 9.99D-01 WtEn= 1.22D-03
 Coeff-Com: -0.291D+00 0.129D+01
 Coeff-En:   0.000D+00 0.100D+01
 Coeff:     -0.290D+00 0.129D+01
 Gap=     0.917 Goal=   None    Shift=    0.000
 RMSDP=1.05D-04 MaxDP=7.09D-04 DE=-1.34D-05 OVMax= 0.00D+00

 Cycle   3  Pass 1  IDiag  1:
 E= -152.133061604502     Delta-E=       -0.000002165005 Rises=F Damp=F
 DIIS: error= 4.15D-05 at cycle   3 NSaved=   3.
 NSaved= 3 IEnMin= 3 EnMin= -152.133061604502     IErMin= 3 ErrMin= 4.15D-05
 ErrMax= 4.15D-05 EMaxC= 1.00D-01 BMatC= 5.00D-08 BMatP= 7.67D-07
 IDIUse=1 WtCom= 1.00D+00 WtEn= 0.00D+00
 Coeff-Com:  0.388D-04-0.231D+00 0.123D+01
 Coeff:      0.388D-04-0.231D+00 0.123D+01
 Gap=     0.917 Goal=   None    Shift=    0.000
 RMSDP=3.30D-05 MaxDP=2.64D-04 DE=-2.17D-06 OVMax= 0.00D+00

 Cycle   4  Pass 1  IDiag  1:
 E= -152.133061767779     Delta-E=       -0.000000163277 Rises=F Damp=F
 DIIS: error= 1.08D-05 at cycle   4 NSaved=   4.
 NSaved= 4 IEnMin= 4 EnMin= -152.133061767779     IErMin= 4 ErrMin= 1.08D-05
 ErrMax= 1.08D-05 EMaxC= 1.00D-01 BMatC= 3.18D-09 BMatP= 5.00D-08
 IDIUse=1 WtCom= 1.00D+00 WtEn= 0.00D+00
 Coeff-Com:  0.159D-01-0.632D-01-0.653D-01 0.111D+01
 Coeff:      0.159D-01-0.632D-01-0.653D-01 0.111D+01
 Gap=     0.917 Goal=   None    Shift=    0.000
 RMSDP=7.89D-06 MaxDP=5.75D-05 DE=-1.63D-07 OVMax= 0.00D+00

 Cycle   5  Pass 1  IDiag  1:
 E= -152.133061777488     Delta-E=       -0.000000009709 Rises=F Damp=F
 DIIS: error= 2.87D-06 at cycle   5 NSaved=   5.
 NSaved= 5 IEnMin= 5 EnMin= -152.133061777488     IErMin= 5 ErrMin= 2.87D-06
 ErrMax= 2.87D-06 EMaxC= 1.00D-01 BMatC= 2.22D-10 BMatP= 3.18D-09
 IDIUse=1 WtCom= 1.00D+00 WtEn= 0.00D+00
 Coeff-Com: -0.319D-02 0.324D-01-0.900D-01-0.212D+00 0.127D+01
 Coeff:     -0.319D-02 0.324D-01-0.900D-01-0.212D+00 0.127D+01
 Gap=     0.917 Goal=   None    Shift=    0.000
 RMSDP=2.42D-06 MaxDP=1.69D-05 DE=-9.71D-09 OVMax= 0.00D+00

 Cycle   6  Pass 1  IDiag  1:
 E= -152.133061778215     Delta-E=       -0.000000000727 Rises=F Damp=F
 DIIS: error= 3.96D-07 at cycle   6 NSaved=   6.
 NSaved= 6 IEnMin= 6 EnMin= -152.133061778215     IErMin= 6 ErrMin= 3.96D-07
 ErrMax= 3.96D-07 EMaxC= 1.00D-01 BMatC= 5.79D-12 BMatP= 2.22D-10
 IDIUse=1 WtCom= 1.00D+00 WtEn= 0.00D+00
 Coeff-Com:  0.745D-03-0.964D-02 0.322D-01 0.426D-01-0.427D+00 0.136D+01
 Coeff:      0.745D-03-0.964D-02 0.322D-01 0.426D-01-0.427D+00 0.136D+01
 Gap=     0.917 Goal=   None    Shift=    0.000
 RMSDP=3.66D-07 MaxDP=2.64D-06 DE=-7.27D-10 OVMax= 0.00D+00

 Cycle   7  Pass 1  IDiag  1:
 E= -152.133061778233     Delta-E=       -0.000000000019 Rises=F Damp=F
 DIIS: error= 7.29D-08 at cycle   7 NSaved=   7.
 NSaved= 7 IEnMin= 7 EnMin= -152.133061778233     IErMin= 7 ErrMin= 7.29D-08
 ErrMax= 7.29D-08 EMaxC= 1.00D-01 BMatC= 1.94D-13 BMatP= 5.79D-12
 IDIUse=1 WtCom= 1.00D+00 WtEn= 0.00D+00
 Coeff-Com:  0.433D-04-0.269D-03 0.243D-03 0.448D-02-0.822D-02-0.142D+00
 Coeff-Com:  0.115D+01
 Coeff:      0.433D-04-0.269D-03 0.243D-03 0.448D-02-0.822D-02-0.142D+00
 Coeff:      0.115D+01
 Gap=     0.917 Goal=   None    Shift=    0.000
 RMSDP=6.12D-08 MaxDP=4.39D-07 DE=-1.85D-11 OVMax= 0.00D+00

 Cycle   8  Pass 1  IDiag  1:
 E= -152.133061778234     Delta-E=       -0.000000000001 Rises=F Damp=F
 DIIS: error= 1.90D-08 at cycle   8 NSaved=   8.
 NSaved= 8 IEnMin= 8 EnMin= -152.133061778234     IErMin= 8 ErrMin= 1.90D-08
 ErrMax= 1.90D-08 EMaxC= 1.00D-01 BMatC= 1.25D-14 BMatP= 1.94D-13
 IDIUse=1 WtCom= 1.00D+00 WtEn= 0.00D+00
 Coeff-Com: -0.459D-04 0.532D-03-0.167D-02-0.283D-02 0.219D-01-0.314D-01
 Coeff-Com: -0.288D+00 0.130D+01
 Coeff:     -0.459D-04 0.532D-03-0.167D-02-0.283D-02 0.219D-01-0.314D-01
 Coeff:     -0.288D+00 0.130D+01
 Gap=     0.917 Goal=   None    Shift=    0.000
 RMSDP=1.67D-08 MaxDP=9.30D-08 DE=-6.25D-13 OVMax= 0.00D+00

 Cycle   9  Pass 1  IDiag  1:
 E= -152.133061778234     Delta-E=        0.000000000000 Rises=F Damp=F
 DIIS: error= 2.80D-09 at cycle   9 NSaved=   9.
 NSaved= 9 IEnMin= 9 EnMin= -152.133061778234     IErMin= 9 ErrMin= 2.80D-09
 ErrMax= 2.80D-09 EMaxC= 1.00D-01 BMatC= 4.01D-16 BMatP= 1.25D-14
 IDIUse=1 WtCom= 1.00D+00 WtEn= 0.00D+00
 Coeff-Com:  0.169D-05-0.270D-04 0.100D-03 0.585D-04-0.131D-02 0.873D-02
 Coeff-Com: -0.335D-01-0.632D-01 0.109D+01
 Coeff:      0.169D-05-0.270D-04 0.100D-03 0.585D-04-0.131D-02 0.873D-02
 Coeff:     -0.335D-01-0.632D-01 0.109D+01
 Gap=     0.917 Goal=   None    Shift=    0.000
 RMSDP=2.50D-09 MaxDP=1.47D-08 DE=-1.14D-13 OVMax= 0.00D+00

 SCF Done:  E(RHF) =  -152.133061778     A.U. after    9 cycles
             Convg  =    0.2502D-08             -V/T =  2.0085
 KE= 1.508475282518D+02 PE=-5.193208471010D+02 EE= 1.353355257587D+02
[...]
     28  0.295496D-03 -0.201904D-02  0.170374D-02  0.147882D-02  0.156591D-03
     29  0.280586D-03 -0.300515D-02  0.243955D-02  0.295430D-02  0.316156D-02
     30  0.488998D-03 -0.264350D-02  0.276596D-02  0.448814D-03 -0.307921D-02
     31  0.655432D-04  0.267995D-02 -0.367678D-02 -0.392594D-03  0.812040D-04
     32 -0.128749D-01  0.204918D-02  0.353077D-02  0.600461D-02  0.224032D-03
     33  0.142160D-01 -0.452388D-02 -0.215636D-02 -0.556973D-02 -0.117586D-04
                6             7             8             9            10 
      6  0.482304D+00
      7 -0.487181D-02  0.478639D+00
      8 -0.974985D-04  0.304645D-03  0.640276D+00
      9 -0.972097D-03  0.236509D-02  0.817041D-04  0.970298D-01
     10  0.254560D-02 -0.959523D-03  0.202793D-02 -0.113515D-01  0.992291D-01
     11 -0.270782D-02 -0.186145D-02 -0.635854D-02 -0.409993D-01 -0.467311D-01
     12 -0.164293D-03 -0.172426D-03 -0.411990D-03 -0.289355D-01 -0.293625D-01
     13  0.107477D-02  0.500506D-05  0.559180D-02 -0.398505D-01  0.269484D-01
     14  0.242704D-03  0.791434D-03 -0.595702D-03  0.261509D-01 -0.411300D-01
     15 -0.488648D-02 -0.518725D-02 -0.104270D-02 -0.110580D-01 -0.120678D-01
     16  0.534027D-03 -0.511062D-02 -0.124206D-03 -0.608380D-02  0.215919D-01
     17 -0.454087D-02  0.108228D-02  0.133604D-02  0.198238D-01 -0.634050D-02
     18  0.454389D-02 -0.569313D-04  0.391368D-03  0.481508D-02 -0.329751D-02
     19 -0.109342D-03  0.471440D-02 -0.192982D-03 -0.273655D-02  0.525426D-02
     20  0.474808D-02  0.486146D-02 -0.372534D-03 -0.482963D-02 -0.529833D-02
     21 -0.701889D-04  0.966835D-03  0.208471D-01 -0.900558D-02  0.721543D-02
     22 -0.369442D-02  0.330895D-02  0.780146D-03 -0.589897D-02 -0.852160D-02
     23 -0.840847D-03 -0.334774D-02  0.518450D-03 -0.108864D-01 -0.660092D-02
     24  0.249557D-02  0.976107D-04  0.841219D-03 -0.800110D-02 -0.322432D-02
     25 -0.298777D-02  0.390622D-02  0.149526D-02  0.835153D-02  0.657902D-02
     26 -0.134201D-03 -0.275047D-02  0.123356D-02  0.336406D-02  0.849969D-02
     27  0.320221D-02  0.694879D-03  0.155633D-02  0.624940D-02  0.118763D-01
     28 -0.268267D-02  0.287702D-02 -0.229790D-02  0.444701D-02 -0.528473D-02
     29  0.170908D-03 -0.377966D-02 -0.255960D-02 -0.540468D-03 -0.336405D-02
     30  0.350732D-02 -0.334318D-03 -0.223683D-02  0.234487D-02  0.125566D-04
     31 -0.137534D-02  0.113543D-02  0.764331D-03  0.320049D-01 -0.292254D-01
     32  0.703347D-03 -0.697812D-03  0.683404D-03 -0.373669D-01 -0.564128D-02
     33  0.149978D-03 -0.908322D-03 -0.175335D-02  0.656835D-02  0.352387D-01
               11            12            13            14            15 
     11  0.181516D+00
     12  0.300513D-01  0.391659D-01
     13 -0.643316D-01 -0.534897D-02  0.770022D-01
     14 -0.662191D-01 -0.435514D-02  0.779075D-02  0.819366D-01
     15  0.299816D-01  0.530421D-02 -0.654967D-02 -0.662801D-02  0.138527D+00
     16 -0.163640D-01 -0.385467D-02  0.738835D-02 -0.289590D-02 -0.236513D-01
     17 -0.122272D-01 -0.331695D-02 -0.368873D-02  0.673685D-02 -0.240367D-01
     18 -0.412525D-02 -0.125710D-03  0.137610D-03  0.300115D-02 -0.548362D-01
     19 -0.623892D-02 -0.371432D-03  0.348768D-02  0.677786D-03 -0.550451D-01
     20  0.895790D-02  0.243568D-02 -0.696940D-03 -0.789090D-03  0.159200D-01
     21 -0.140597D-01 -0.228787D-02  0.225443D-01 -0.385036D-02 -0.175051D-02
     22  0.680292D-02 -0.699152D-02  0.133510D-01  0.924694D-03  0.329641D-02
     23  0.104815D-01 -0.620144D-02  0.140290D-01 -0.144323D-02  0.893761D-02
     24  0.301232D-02 -0.783776D-02  0.155920D-01  0.618228D-04 -0.228243D-02
     25 -0.733416D-02  0.674642D-02 -0.466838D-03 -0.129503D-01 -0.358362D-02
     26 -0.365560D-02  0.753650D-02  0.211154D-03 -0.153182D-01  0.205759D-02
     27 -0.111248D-01  0.590018D-02  0.177417D-02 -0.138132D-01 -0.916246D-02
     28  0.102449D-02  0.354641D-03 -0.159786D-01  0.151741D-01  0.114878D-03
     29  0.470305D-02  0.114473D-02 -0.153006D-01  0.128062D-01  0.575608D-02
     30 -0.276611D-02 -0.491599D-03 -0.137376D-01  0.143113D-01 -0.546396D-02
     31 -0.500577D-02 -0.849512D-03 -0.925119D-02  0.140779D-01 -0.855647D-03
     32 -0.182327D-01  0.208169D-01  0.266394D-01  0.154855D-01 -0.451164D-03
     33  0.177703D-01 -0.205163D-01 -0.156537D-01 -0.266151D-01  0.478136D-03
               16            17            18            19            20 
     16  0.141661D+00
     17 -0.263347D-01  0.145176D+00
     18 -0.551956D-01  0.161358D-01  0.711764D-01
     19  0.161654D-01 -0.568998D-01  0.129582D-01  0.723302D-01
     20 -0.560485D-01 -0.570779D-01  0.131828D-01  0.137266D-01  0.735356D-01
     21  0.688639D-03  0.139732D-02  0.472172D-03 -0.331524D-04 -0.786025D-03
     22 -0.881958D-02  0.493497D-02 -0.909524D-02  0.831874D-02  0.138678D-02
     23 -0.231247D-02 -0.721546D-02  0.901696D-02 -0.587863D-03 -0.773697D-02
     24  0.313154D-02 -0.133615D-02 -0.114476D-03 -0.988901D-02  0.104387D-01
     25 -0.455189D-02  0.866345D-02 -0.837965D-02  0.931972D-02 -0.149055D-02
     26  0.195521D-02 -0.348698D-02  0.973255D-02  0.413123D-03 -0.106143D-01
     27  0.739922D-02  0.239234D-02  0.601111D-03 -0.888803D-02  0.756136D-02
     28 -0.368668D-02  0.387751D-02 -0.992340D-02  0.971440D-02 -0.116421D-03
     29  0.282043D-02 -0.827292D-02  0.818881D-02  0.807802D-03 -0.924017D-02
     30  0.826444D-02 -0.239361D-02 -0.942630D-03 -0.849335D-02  0.893549D-02
     31 -0.897666D-02  0.939149D-02  0.311147D-02 -0.244041D-02 -0.190942D-03
     32  0.325024D-02 -0.547838D-02 -0.508335D-03  0.229093D-02  0.978641D-03
     33  0.507924D-02 -0.290368D-02 -0.200512D-02  0.359708D-03 -0.111021D-02
               21            22            23            24            25 
     21  0.315131D+00
     22  0.561839D-02  0.215649D-01
     23  0.552110D-02  0.675195D-02  0.222217D-01
     24  0.589845D-02  0.592739D-02  0.631668D-02  0.205687D-01
     25  0.184196D-02  0.486402D-02 -0.107536D-01 -0.995617D-02  0.215602D-01
     26  0.174467D-02 -0.994895D-02  0.471614D-02 -0.956688D-02  0.594256D-02
     27  0.212202D-02 -0.107735D-01 -0.111889D-01  0.468518D-02  0.673999D-02
     28 -0.777513D-02  0.448516D-02 -0.101269D-01 -0.101608D-01  0.442719D-02
     29 -0.787242D-02 -0.103278D-01  0.534284D-02 -0.977147D-02 -0.111904D-01
     30 -0.749507D-02 -0.111524D-01 -0.105622D-01  0.448059D-02 -0.103930D-01
     31 -0.169625D-03  0.365652D-02  0.125354D-02  0.125450D-02  0.419926D-02
     32  0.424166D-02 -0.192257D-02 -0.772217D-03 -0.987742D-03 -0.150496D-02
     33 -0.407861D-02 -0.180162D-02 -0.749816D-03 -0.705231D-03 -0.251798D-02
               26            27            28            29            30 
     26  0.206077D-01
     27  0.632463D-02  0.221987D-01
     28 -0.101849D-01 -0.102187D-01  0.209180D-01
     29  0.448023D-02 -0.106341D-01  0.630594D-02  0.219766D-01
     30 -0.980279D-02  0.523997D-02  0.627208D-02  0.686228D-02  0.219050D-01
     31  0.179627D-02  0.179723D-02 -0.318985D-02 -0.559284D-02 -0.559188D-02
     32 -0.354605D-03 -0.570130D-03  0.133077D-02  0.248112D-02  0.226560D-02
     33 -0.146618D-02 -0.142159D-02  0.224074D-02  0.329254D-02  0.333712D-02
               31            32            33 
     31  0.224795D-01
     32 -0.799570D-02  0.312076D-01
     33 -0.897430D-02 -0.171331D-01  0.302967D-01
 Leave Link  716 at Thu Jan 24 17:22:25 2019, MaxMem=  134217728 cpu:       0.0
 (Enter /home/programs/G09_64/g09/l103.exe)

 GradGradGradGradGradGradGradGradGradGradGradGradGradGradGradGradGradGrad
 Berny optimization.
 Red2BG is reusing G-inverse.
 Internal  Forces:  Max     0.000006594 RMS     0.000002619
 Search for a local minimum.
 Step number   1 out of a maximum of    2
 All quantities printed in internal units (Hartrees-Bohrs-Radians)
 Second derivative matrix not updated -- analytic derivatives used.
 ITU=  0
     Eigenvalues ---    0.00225   0.00518   0.06557   0.06590   0.07158
     Eigenvalues ---    0.07570   0.14391   0.16108   0.18161   0.18459
     Eigenvalues ---    0.22677   0.26855   0.31178   0.40474   0.45401
     Eigenvalues ---    0.46996   0.47159   0.48530   0.48748   0.54612
     Eigenvalues ---    0.64572
 Angle between quadratic step and forces=  72.67 degrees.
 Linear search not attempted -- first point.
 Iteration  1 RMS(Cart)=  0.00003335 RMS(Int)=  0.00000000
 Iteration  2 RMS(Cart)=  0.00000000 RMS(Int)=  0.00000000
 Variable       Old X    -DE/DX   Delta X   Delta X   Delta X     New X
                                 (Linear)    (Quad)   (Total)
    R1        2.92305   0.00000   0.00000  -0.00001  -0.00001   2.92304
    R2        2.06669   0.00000   0.00000  -0.00001  -0.00001   2.06668
    R3        2.07371   0.00000   0.00000   0.00000   0.00000   2.07371
    R4        2.71062   0.00001   0.00000   0.00001   0.00001   2.71062
    R5        2.05146   0.00001   0.00000   0.00001   0.00001   2.05147
    R6        2.05151   0.00000   0.00000   0.00000   0.00000   2.05150
    R7        2.05312   0.00000   0.00000   0.00000   0.00000   2.05312
    R8        1.87311   0.00000   0.00000   0.00000   0.00000   1.87312
    A1        1.90825   0.00000   0.00000  -0.00003  -0.00003   1.90823
    A2        1.90688   0.00000   0.00000  -0.00001  -0.00001   1.90688
    A3        1.97497   0.00000   0.00000   0.00001   0.00001   1.97499
    A4        1.87375   0.00000   0.00000  -0.00001  -0.00001   1.87375
    A5        1.85689   0.00000   0.00000  -0.00001  -0.00001   1.85688
    A6        1.93969   0.00000   0.00000   0.00003   0.00003   1.93972
    A7        1.92124   0.00000   0.00000   0.00001   0.00001   1.92125
    A8        1.92768   0.00000   0.00000   0.00000   0.00000   1.92767
    A9        1.93281   0.00000   0.00000  -0.00002  -0.00002   1.93279
   A10        1.89670   0.00000   0.00000   0.00000   0.00000   1.89670
   A11        1.89126   0.00000   0.00000   0.00001   0.00001   1.89127
   A12        1.89324   0.00000   0.00000   0.00000   0.00000   1.89325
   A13        1.81456   0.00000   0.00000   0.00001   0.00001   1.81457
    D1       -1.02406   0.00000   0.00000  -0.00007  -0.00007  -1.02413
    D2        1.07044   0.00000   0.00000  -0.00006  -0.00006   1.07038
    D3       -3.11508   0.00000   0.00000  -0.00007  -0.00007  -3.11515
    D4        1.02190   0.00000   0.00000  -0.00010  -0.00010   1.02181
    D5        3.11640   0.00000   0.00000  -0.00009  -0.00009   3.11632
    D6       -1.06911   0.00000   0.00000  -0.00010  -0.00010  -1.06921
    D7       -3.09024   0.00000   0.00000  -0.00005  -0.00005  -3.09029
    D8       -0.99574   0.00000   0.00000  -0.00004  -0.00004  -0.99578
    D9        1.10193   0.00000   0.00000  -0.00005  -0.00005   1.10188
   D10       -1.06474   0.00000   0.00000  -0.00001  -0.00001  -1.06475
   D11        3.12269   0.00000   0.00000   0.00002   0.00002   3.12271
   D12        1.08833   0.00000   0.00000   0.00002   0.00002   1.08834
         Item               Value     Threshold  Converged?
 Maximum Force            0.000007     0.000015     YES
 RMS     Force            0.000003     0.000010     YES
 Maximum Displacement     0.000075     0.000060     NO 
 RMS     Displacement     0.000033     0.000040     YES
 Predicted change in Energy=-5.064896D-10
 GradGradGradGradGradGradGradGradGradGradGradGradGradGradGradGradGradGrad

 Leave Link  103 at Thu Jan 24 17:22:25 2019, MaxMem=  134217728 cpu:       0.0
 (Enter /home/programs/G09_64/g09/l9999.exe)
 1\1\GINC-AF2CIQUS\Freq\RHF\STO-3G\C2H6O1\RAMOS\24-Jan-2019\0\\#P Geom=
 AllCheck Guess=TCheck SCRF=Check GenChk RHF/STO-3G Freq\\---\\0,1\C,0.
 0307810273,0.5593173296,0.0550156483\C,-1.2831769898,-0.2541739401,-0.
 0111337632\H,-2.1375877567,0.4107091075,0.0689125389\H,-1.3488206392,-
 0.7928312319,-0.9513945915\H,-1.3318185879,-0.9733505419,0.8017735714\
 H,0.043548427,1.2931242996,-0.7557984499\H,0.0649411705,1.1154092278,1
 .0004230225\O,1.2037846564,-0.2491385499,-0.1121856515\H,1.1657715025,
 -0.8856968259,0.6466587246\\Version=AM64L-G09RevB.01\HF=-152.1330661\R
 MSD=2.636e-10\RMSF=2.611e-06\ZeroPoint=0.0947879\Thermal=0.0988466\Dip
 ole=-0.428726,-0.0599754,0.4165766\DipoleDeriv=0.4576185,-0.0270953,0.
 082215,-0.0203638,0.3343357,0.0411923,0.0788809,0.040244,0.2142261,-0.
 0824639,0.0600626,0.002288,0.0178515,-0.0727056,-0.0096241,-0.0004065,
 -0.0224434,-0.037839,-0.0320337,0.0345451,0.0020954,-0.0021497,0.01854
 17,-0.0076901,0.0027866,-0.0061003,0.0459757,0.01281,-0.0305744,-0.013
 0967,-0.0229876,0.0129905,-0.0351558,0.0045125,-0.0248383,-0.0028849,0
 .0019982,-0.0152901,-0.0105547,-0.0224424,-0.0095349,0.0386089,-0.0084
 05,0.0376119,-0.0112365,-0.027683,-0.0115735,0.0110634,-0.001933,-0.01
 64071,0.0291742,0.0032224,0.025134,-0.003822,-0.0838013,-0.0014881,-0.
 0473822,0.0090144,-0.0404433,-0.0229468,-0.0007415,-0.0593244,-0.05850
 76,-0.438823,-0.0116989,-0.1156437,0.012201,-0.312176,-0.2200835,-0.14
 54538,-0.1952626,-0.1347339,0.1923782,0.0031127,0.0890153,0.0308097,0.
 0853989,0.1865248,0.0656044,0.204979,-0.0111779\Polar=13.3125106,-1.67
 7922,13.8482569,0.4527053,-1.7724486,12.6903608\PolarDeriv=-0.1346515,
 2.9198991,-0.911585,0.2412664,0.24666,-0.3584835,3.382302,-0.3884784,-
 0.7063278,0.1438852,0.3608916,-1.9578492,0.722783,-0.3900142,0.5438629
 ,-0.1792001,-2.632129,-0.5089579,-0.9954764,-2.4201773,0.45357,-0.3857
 517,-0.023417,0.2982374,-2.6173269,0.2164826,0.3757742,-0.0595171,-0.4
 147106,1.9747159,-0.2497835,0.0171144,-0.417892,0.518409,2.1415624,0.6
 377477,-5.0074456,2.0284099,-0.1462777,0.1865844,0.0169515,-0.137455,0
 .8137863,-1.9894078,2.5221893,-0.011374,0.2218666,-0.2756659,0.1070182
 ,-0.0322749,0.1105458,-1.9721343,0.8071958,0.1347524,-0.6618742,-0.794
 4681,-0.1739184,-1.987003,-0.1410604,-0.173139,0.3051244,-0.6167255,-2
 .5566902,-0.287716,-1.9784755,-0.7345415,-0.2647733,-0.2222216,-0.3097
 885,-0.6899534,-1.8123215,-4.2383439,-0.5983624,-1.1339104,-0.2455144,
 1.7413036,0.1271455,-0.0833685,0.2331137,-0.7012564,-3.3186972,0.26257
 72,1.7633229,-0.5492444,0.3402035,0.2010983,0.4252118,-0.5682598,-2.00
 75257,3.1276887,0.2977278,1.3167858,0.2326125,-1.7747986,-0.0292758,0.
 008267,-0.4000796,0.3198116,3.9894912,-0.1548805,-2.1130397,0.6803633,
 -0.3180052,-0.029937,-0.683074,0.2320143,2.3853377,-3.3962961,0.277776
 6,1.1987635,0.1283456,2.0322437,0.0590888,0.2089283,-0.3709888,0.21542
 3,3.2508426,0.0512249,2.0981532,0.6228073,0.1683941,0.0542093,0.655111
 8,0.2793704,2.2712039,4.0189272,5.8151266,-1.6920591,0.7152979,-1.4475
 494,-0.3108864,0.2740555,-0.8512076,1.7029575,0.4284827,0.5496751,-1.8
 46548,0.7206029,-1.1631229,1.2552903,-1.6208437,1.302863,1.163678,-2.9
 312015,1.0071793,-1.4232434,-0.0525305,1.3937046,0.0547938,-0.0370422,
 -0.4947236,1.2411935,-3.9850647,-0.4938747,1.9085396,-0.4811884,0.6572
 861,-0.8532646,1.296866,1.0768909,-2.3170015,3.1556833\HyperPolar=-10.
 5909722,5.7339853,-2.7859564,0.5219316,1.1278115,-1.6364573,4.0022234,
 -0.4868062,-2.7226948,2.2412868\PG=C01 [X(C2H6O1)]\NImag=0\\0.70676029
 ,-0.03401553,0.81088988,-0.01314807,-0.03694958,0.87876905,-0.23841852
 ,-0.09234453,-0.01244529,0.75143875,-0.09008161,-0.17984114,-0.0032898
 9,-0.06919882,0.82362891,-0.00679802,-0.00429634,-0.12767229,-0.006949
 30,0.00064932,0.86082038,-0.02288366,0.02559692,0.00277506,-0.31239149
 ,0.19094887,0.02221625,0.32330590,-0.02166549,0.01868389,0.00190543,0.
 18745646,-0.22385275,-0.01729593,-0.19857069,0.22682586,-0.00205665,0.
 00175076,-0.00055080,0.02240393,-0.01760205,-0.08165421,-0.02387239,0.
 01867088,0.07105441,0.00023952,-0.02038549,-0.03729374,-0.07718020,-0.
 00805990,-0.01977060,0.00667762,0.01529464,0.03435167,0.07179103,0.001
 25723,-0.01047975,-0.01983500,-0.00772041,-0.17309867,-0.16501767,-0.0
 0721181,-0.00895226,-0.02318666,0.01288646,0.17109585,0.00054845,0.003
 46903,0.00491722,-0.01721259,-0.16345707,-0.37180587,-0.00338255,0.005
 16531,0.00319673,0.01940955,0.17603687,0.38100360,0.00070864,-0.027248
 30,0.03296989,-0.07750873,-0.00865738,0.01309087,0.00613350,0.02200952
 ,-0.03091610,-0.00035329,0.00202552,-0.00132538,0.07283563,0.00181524,
 -0.01357418,0.01688039,-0.00667093,-0.24470717,0.18837441,-0.00725826,
 -0.01227416,0.02054272,0.00091048,0.02015522,-0.02191625,0.01235930,0.
 24831917,-0.00066105,-0.00649686,0.00665402,0.00991214,0.18734920,-0.2
 9609421,0.00202832,-0.00868252,0.00659349,0.00112016,0.03056299,-0.019
 19853,-0.01127788,-0.20197663,0.30032691,-0.07374570,-0.00911561,0.009
 42795,0.00003232,-0.02598869,0.03079836,0.00204208,0.00092587,-0.00007
 135,0.00172268,0.00129736,-0.00019095,-0.00646564,-0.00356473,-0.00195
 705,0.08034107,-0.00559654,-0.23954168,0.18023009,0.00005674,-0.011778
 93,0.01732650,0.00053049,0.00094260,-0.00040440,0.00165224,0.00115635,
 0.00011670,-0.00306664,-0.00061631,-0.00061782,-0.00080834,0.25094061,
 0.00551557,0.18124071,-0.29317801,-0.00188174,-0.00652607,0.00669663,0
 .00018858,-0.00007101,0.00013104,0.00031225,-0.00006147,0.00091999,-0.
 00169727,-0.00094382,0.00077452,-0.00356283,-0.19594593,0.29224751,-0.
 07216971,-0.00845843,-0.01504623,-0.00021826,-0.01993127,-0.03612452,0
 .00229878,0.00100382,0.00028713,-0.00665845,-0.00399321,0.00158264,0.0
 0161375,0.00119801,0.00044745,0.00179297,0.00003293,0.00201583,0.08205
 163,-0.01280199,-0.16816579,-0.14921440,-0.00259683,-0.00877410,-0.021
 82977,0.00041908,0.00060530,0.00048968,-0.00370538,-0.00085817,0.00060
 828,0.00184877,0.00131302,-0.00009209,0.00169436,0.01915928,0.02867763
 ,0.00388694,0.17002349,-0.01645874,-0.14718025,-0.35101703,0.00263415,
 0.00387633,0.00371666,-0.00018850,0.00016794,0.00021719,0.00108246,0.0
 0053154,0.00103290,0.00002901,0.00003890,0.00091198,-0.00265149,-0.020
 84094,-0.01947365,0.01031488,0.16610549,0.35964812,-0.29198867,0.11902
 255,0.08114126,-0.04815509,0.03028363,0.00499985,-0.00562335,-0.006400
 71,-0.00030285,0.00403343,0.00163715,0.00059015,0.00332355,0.00155924,
 -0.00003958,0.00196880,0.00233873,-0.00358472,-0.01097979,0.01355497,0
 .00529692,0.40252296,0.17306875,-0.19362604,-0.02494687,-0.00667203,0.
 01492970,0.00331933,-0.00370059,-0.00158793,-0.00001399,0.00153964,0.0
 0106680,0.00022186,0.00001048,0.00080954,-0.00026759,0.02902025,-0.018
 03274,-0.00406714,0.02843235,-0.01489286,-0.00344809,-0.19292182,0.477
 77205,0.01402118,0.02883410,-0.12024048,0.00289465,-0.00011158,0.00589
 871,-0.00007479,0.00029617,0.00086936,0.00089380,0.00085178,0.00010804
 ,-0.00051455,-0.00088655,-0.00013912,-0.03303318,0.02078562,0.01027243
 ,0.03597089,-0.02372836,0.00237085,-0.10048628,-0.29655066,0.48791222,
 -0.00850219,0.04694841,-0.04838083,0.00240121,0.00068517,-0.00146288,0
 .00044061,-0.00005342,0.00017660,-0.00027235,-0.00017828,-0.00001931,-
 0.00028743,-0.00034835,0.00042750,-0.00768858,0.00486038,0.00269433,0.
 00226908,-0.00229992,-0.00005868,-0.05510185,-0.02877704,0.08032829,0.
 06674150,-0.01198008,-0.02434518,0.03521983,-0.00230965,0.00349415,-0.
 00122986,-0.00075401,-0.00039055,-0.00024693,-0.00013270,-0.00008537,-
 0.00024472,0.00071874,0.00057488,0.00022132,0.00653955,-0.00222919,-0.
 00230290,-0.00217115,0.00158982,0.00074908,0.03092625,-0.26643852,0.27
 050947,-0.02083695,0.28782996,0.01903734,-0.02037156,0.00231831,0.0006
 4405,-0.00088819,0.00009419,0.00031003,-0.00015627,0.00014279,-0.00010
 557,0.00011761,-0.00017409,-0.00035858,-0.00011317,0.00017092,0.001240
 55,-0.00064981,0.00160954,0.00055193,-0.00101645,0.00259298,0.01238526
 ,0.32575314,-0.38705201,-0.03370501,-0.30267530,0.38029736\\-0.0000005
 5,0.00000230,-0.00000381,-0.00000155,-0.00000311,0.00000407,0.00000468
 ,-0.00000239,-0.00000020,-0.00000070,-0.00000103,-0.00000096,-0.000003
 05,-0.00000050,-0.00000057,0.00000229,0.00000429,-0.00000265,0.0000042
 3,-0.00000279,0.00000087,-0.00000448,0.00000232,0.00000334,-0.00000089
 ,0.00000093,-0.00000011\\\@


 SILVERMAN'S PARADOX - IF MURPHY'S LAW CAN GO WRONG, IT WILL.
 Job cpu time:  0 days  0 hours  0 minutes  2.0 seconds.
 File lengths (MBytes):  RWF=      5 Int=      0 D2E=      0 Chk=      1 Scr=      1
 Normal termination of Gaussian 09 at Thu Jan 24 17:22:25 2019.
