 Entering Gaussian System, Link 0=/home/programs/G09_64/g09/g09
 Initial command:
 /home/programs/G09_64/g09/l1.exe /scratch/Gau-25332.inp -scrdir=/scratch/
 Entering Link 1 = /home/programs/G09_64/g09/l1.exe PID=     25334.
  
 Copyright (c) 1988,1990,1992,1993,1995,1998,2003,2009,2010,
            Gaussian, Inc.  All Rights Reserved.
  
 This is part of the Gaussian(R) 09 program.  It is based on
 the Gaussian(R) 03 system (copyright 2003, Gaussian, Inc.),
 the Gaussian(R) 98 system (copyright 1998, Gaussian, Inc.),
 the Gaussian(R) 94 system (copyright 1995, Gaussian, Inc.),
 the Gaussian 92(TM) system (copyright 1992, Gaussian, Inc.),
 the Gaussian 90(TM) system (copyright 1990, Gaussian, Inc.),
 the Gaussian 88(TM) system (copyright 1988, Gaussian, Inc.),
 the Gaussian 86(TM) system (copyright 1986, Carnegie Mellon
 University), and the Gaussian 82(TM) system (copyright 1983,
 Carnegie Mellon University). Gaussian is a federally registered
 trademark of Gaussian, Inc.
  
 This software contains proprietary and confidential information,
 including trade secrets, belonging to Gaussian, Inc.
  
 This software is provided under written license and may be
 used, copied, transmitted, or stored only in accord with that
 written license.
  
 The following legend is applicable only to US Government
 contracts under FAR:
  
                    RESTRICTED RIGHTS LEGEND
  
 Use, reproduction and disclosure by the US Government is
 subject to restrictions as set forth in subparagraphs (a)
 and (c) of the Commercial Computer Software - Restricted
 Rights clause in FAR 52.227-19.
  
 Gaussian, Inc.
 340 Quinnipiac St., Bldg. 40, Wallingford CT 06492
  
  
 ---------------------------------------------------------------
 Warning -- This program may not be used in any manner that
 competes with the business of Gaussian, Inc. or will provide
 assistance to any competitor of Gaussian, Inc.  The licensee
 of this program is prohibited from giving any competitor of
 Gaussian, Inc. access to this program.  By using this program,
 the user acknowledges that Gaussian, Inc. is engaged in the
 business of creating and licensing software in the field of
 computational chemistry and represents and warrants to the
 licensee that it is not a competitor of Gaussian, Inc. and that
 it will not use this program in any manner prohibited above.
 ---------------------------------------------------------------
  

 Cite this work as:
 Gaussian 09, Revision B.01,
 M. J. Frisch, G. W. Trucks, H. B. Schlegel, G. E. Scuseria, 
 M. A. Robb, J. R. Cheeseman, G. Scalmani, V. Barone, B. Mennucci, 
 G. A. Petersson, H. Nakatsuji, M. Caricato, X. Li, H. P. Hratchian, 
 A. F. Izmaylov, J. Bloino, G. Zheng, J. L. Sonnenberg, M. Hada, 
 M. Ehara, K. Toyota, R. Fukuda, J. Hasegawa, M. Ishida, T. Nakajima, 
 Y. Honda, O. Kitao, H. Nakai, T. Vreven, J. A. Montgomery, Jr., 
 J. E. Peralta, F. Ogliaro, M. Bearpark, J. J. Heyd, E. Brothers, 
 K. N. Kudin, V. N. Staroverov, T. Keith, R. Kobayashi, J. Normand, 
 K. Raghavachari, A. Rendell, J. C. Burant, S. S. Iyengar, J. Tomasi, 
 M. Cossi, N. Rega, J. M. Millam, M. Klene, J. E. Knox, J. B. Cross, 
 V. Bakken, C. Adamo, J. Jaramillo, R. Gomperts, R. E. Stratmann, 
 O. Yazyev, A. J. Austin, R. Cammi, C. Pomelli, J. W. Ochterski, 
 R. L. Martin, K. Morokuma, V. G. Zakrzewski, G. A. Voth, 
 P. Salvador, J. J. Dannenberg, S. Dapprich, A. D. Daniels, 
 O. Farkas, J. B. Foresman, J. V. Ortiz, J. Cioslowski, 
 and D. J. Fox, Gaussian, Inc., Wallingford CT, 2010.
 
 ******************************************
 Gaussian 09:  AM64L-G09RevB.01 12-Aug-2010
                24-Jan-2019 
 ******************************************
 %mem=1GB
 %chk=kk.chk
 ----------------------------------------------------------------------
 #p hf/sto-3g scf=verytight opt=(ts,noeigentest,calcfc) NoSymm freq uni
 ts=au
 ----------------------------------------------------------------------
 1/5=1,10=4,11=1,18=20,20=1,38=1/1,3;
 2/9=110,12=2,15=1,17=6,18=5,40=1/2;
 3/6=3,11=9,16=1,25=1,30=1,71=2/1,2,3;
 4//1;
 5/5=2,17=3,38=5/2;
 8/6=4,10=90,11=11/1;
 11/6=1,8=1,9=11,15=111,16=1,31=1/1,2,10;
 10/6=1,7=6,13=1,31=1/2;
 6/7=2,8=2,9=2,10=2,28=1/1;
 7/10=1,18=20,25=1,30=1/1,2,3,16;
 1/5=1,10=4,11=1,18=20/3(2);
 2/9=110,15=1/2;
 99//99;
 2/9=110,15=1/2;
 3/6=3,11=9,16=1,25=1,30=1,71=1/1,2,3;
 4/5=5,16=3/1;
 5/5=2,17=3,38=5/2;
 7/30=1/1,2,3,16;
 1/5=1,11=1,18=20/3(-5);
 2/9=110,15=1/2;
 6/7=2,8=2,9=2,10=2,19=2,28=1/1;
 99/9=1/99;
 Leave Link    1 at Thu Jan 24 17:08:16 2019, MaxMem=  134217728 cpu:       0.0
 (Enter /home/programs/G09_64/g09/l101.exe)
 ---
 ---
 ---
 Symbolic Z-matrix:
 Charge =  0 Multiplicity = 2
 C                     2.50055  -0.33987  -0.00096 
 C                     0.00492   1.06526  -0.00227 
 O                    -1.86843  -0.79434   0.00279 
 H                     4.04366   1.01392  -0.00571 
 H                     2.66069  -1.51805   1.67038 
 H                     2.66004  -1.52722  -1.66469 
 H                    -0.12602   2.26012   1.67163 
 H                    -0.12759   2.25516  -1.68133 
 H                    -3.99184   0.26584   0.00236 
 H                    -5.29784   1.21994   0.0015 
 
 NAtoms=     10 NQM=     10 NQMF=      0 NMic=      0 NMicF=      0 NTot=     10.
                    Isotopes and Nuclear Properties:
 (Nuclear quadrupole moments (NQMom) in fm**2, nuclear magnetic moments (NMagM)
  in nuclear magnetons)

  Atom         1           2           3           4           5           6           7           8           9          10
 IAtWgt=          12          12          16           1           1           1           1           1           1           1
 AtmWgt=  12.0000000  12.0000000  15.9949146   1.0078250   1.0078250   1.0078250   1.0078250   1.0078250   1.0078250   1.0078250
 NucSpn=           0           0           0           1           1           1           1           1           1           1
 AtZEff=   0.0000000   0.0000000   0.0000000   0.0000000   0.0000000   0.0000000   0.0000000   0.0000000   0.0000000   0.0000000
 NQMom=    0.0000000   0.0000000   0.0000000   0.0000000   0.0000000   0.0000000   0.0000000   0.0000000   0.0000000   0.0000000
 NMagM=    0.0000000   0.0000000   0.0000000   2.7928460   2.7928460   2.7928460   2.7928460   2.7928460   2.7928460   2.7928460
 Leave Link  101 at Thu Jan 24 17:08:16 2019, MaxMem=  134217728 cpu:       0.1
 (Enter /home/programs/G09_64/g09/l103.exe)

 GradGradGradGradGradGradGradGradGradGradGradGradGradGradGradGradGradGrad
 Berny optimization.
 Initialization pass.
                           ----------------------------
                           !    Initial Parameters    !
                           ! (Angstroms and Degrees)  !
 --------------------------                            --------------------------
 ! Name  Definition              Value          Derivative Info.                !
 --------------------------------------------------------------------------------
 ! R1    R(1,2)                  1.5156         calculate D2E/DX2 analytically  !
 ! R2    R(1,4)                  1.0863         calculate D2E/DX2 analytically  !
 ! R3    R(1,5)                  1.0854         calculate D2E/DX2 analytically  !
 ! R4    R(1,6)                  1.0849         calculate D2E/DX2 analytically  !
 ! R5    R(2,3)                  1.3968         calculate D2E/DX2 analytically  !
 ! R6    R(2,7)                  1.0905         calculate D2E/DX2 analytically  !
 ! R7    R(2,8)                  1.0913         calculate D2E/DX2 analytically  !
 ! R8    R(3,9)                  1.2559         calculate D2E/DX2 analytically  !
 ! R9    R(9,10)                 0.8559         calculate D2E/DX2 analytically  !
 ! A1    A(2,1,4)              109.358          calculate D2E/DX2 analytically  !
 ! A2    A(2,1,5)              110.5003         calculate D2E/DX2 analytically  !
 ! A3    A(2,1,6)              110.5822         calculate D2E/DX2 analytically  !
 ! A4    A(4,1,5)              108.7845         calculate D2E/DX2 analytically  !
 ! A5    A(4,1,6)              108.7587         calculate D2E/DX2 analytically  !
 ! A6    A(5,1,6)              108.8149         calculate D2E/DX2 analytically  !
 ! A7    A(1,2,3)              105.8301         calculate D2E/DX2 analytically  !
 ! A8    A(1,2,7)              109.844          calculate D2E/DX2 analytically  !
 ! A9    A(1,2,8)              109.8435         calculate D2E/DX2 analytically  !
 ! A10   A(3,2,7)              111.2125         calculate D2E/DX2 analytically  !
 ! A11   A(3,2,8)              111.251          calculate D2E/DX2 analytically  !
 ! A12   A(7,2,8)              108.827          calculate D2E/DX2 analytically  !
 ! A13   A(2,3,9)              108.679          calculate D2E/DX2 analytically  !
 ! A14   A(3,9,10)             170.3818         calculate D2E/DX2 analytically  !
 ! D1    D(4,1,2,3)            179.9718         calculate D2E/DX2 analytically  !
 ! D2    D(4,1,2,7)            -59.8853         calculate D2E/DX2 analytically  !
 ! D3    D(4,1,2,8)             59.7832         calculate D2E/DX2 analytically  !
 ! D4    D(5,1,2,3)            -60.3096         calculate D2E/DX2 analytically  !
 ! D5    D(5,1,2,7)             59.8334         calculate D2E/DX2 analytically  !
 ! D6    D(5,1,2,8)            179.5018         calculate D2E/DX2 analytically  !
 ! D7    D(6,1,2,3)             60.2343         calculate D2E/DX2 analytically  !
 ! D8    D(6,1,2,7)           -179.6227         calculate D2E/DX2 analytically  !
 ! D9    D(6,1,2,8)            -59.9543         calculate D2E/DX2 analytically  !
 ! D10   D(1,2,3,9)            179.9898         calculate D2E/DX2 analytically  !
 ! D11   D(7,2,3,9)             60.7455         calculate D2E/DX2 analytically  !
 ! D12   D(8,2,3,9)            -60.7456         calculate D2E/DX2 analytically  !
 ! D13   D(2,3,9,10)             0.0017         calculate D2E/DX2 analytically  !
 --------------------------------------------------------------------------------
 Trust Radius=3.00D-01 FncErr=1.00D-07 GrdErr=1.00D-07
 Number of steps in this run=     46 maximum allowed number of steps=    100.
 Search for a saddle point of order  1.
 GradGradGradGradGradGradGradGradGradGradGradGradGradGradGradGradGradGrad

 Leave Link  103 at Thu Jan 24 17:08:16 2019, MaxMem=  134217728 cpu:       0.0
 (Enter /home/programs/G09_64/g09/l202.exe)
                          Input orientation:                          
 ---------------------------------------------------------------------
 Center     Atomic      Atomic             Coordinates (Angstroms)
 Number     Number       Type             X           Y           Z
 ---------------------------------------------------------------------
      1          6           0        1.323236   -0.179851   -0.000509
      2          6           0        0.002603    0.563709   -0.001199
      3          8           0       -0.988731   -0.420347    0.001476
      4          1           0        2.139813    0.536543   -0.003022
      5          1           0        1.407977   -0.803315    0.883926
      6          1           0        1.407631   -0.808169   -0.880918
      7          1           0       -0.066686    1.196006    0.884591
      8          1           0       -0.067520    1.193382   -0.889720
      9          1           0       -2.112393    0.140676    0.001249
     10          1           0       -2.803497    0.645566    0.000794
 ---------------------------------------------------------------------
                    Distance matrix (angstroms):
                    1          2          3          4          5
     1  C    0.000000
     2  C    1.515571   0.000000
     3  O    2.324442   1.396823   0.000000
     4  H    1.086290   2.137384   3.271612   0.000000
     5  H    1.085409   2.151111   2.582555   1.765639   0.000000
     6  H    1.084909   2.151757   2.582940   1.764948   1.764851
     7  H    2.146687   1.090515   2.059770   2.468073   2.484334
     8  H    2.147247   1.091273   2.060821   2.467791   3.051182
     9  H    3.450549   2.156889   1.255931   4.270595   3.750099
    10  H    4.208472   2.807294   2.104649   4.944514   4.540451
                    6          7          8          9         10
     6  H    0.000000
     7  H    3.050795   0.000000
     8  H    2.486434   1.774313   0.000000
     9  H    3.750879   2.465549   2.466480   0.000000
    10  H    4.541405   2.928176   2.928940   0.855885   0.000000
 Symmetry turned off by external request.
 Stoichiometry    C2H7O(2)
 Framework group  C1[X(C2H7O)]
 Deg. of freedom    24
 Full point group                 C1      NOp   1
 Rotational constants (GHZ):     33.4782338      8.3061276      7.2582755
 Leave Link  202 at Thu Jan 24 17:08:16 2019, MaxMem=  134217728 cpu:       0.0
 (Enter /home/programs/G09_64/g09/l301.exe)
 Standard basis: STO-3G (5D, 7F)
 Ernie: Thresh=  0.10000D-02 Tol=  0.10000D-05 Strict=F.
 Integral buffers will be    131072 words long.
 Raffenetti 2 integral format.
 Two-electron integral symmetry is turned off.
    22 basis functions,    66 primitive gaussians,    22 cartesian basis functions
    14 alpha electrons       13 beta electrons
       nuclear repulsion energy        86.5681237587 Hartrees.
 IExCor=    0 DFT=F Ex=HF Corr=None ExCW=0 ScaHFX=  1.000000
 ScaDFX=  1.000000  1.000000  1.000000  1.000000 ScalE2=  1.000000  1.000000
 IRadAn=      0 IRanWt=     -1 IRanGd=            0 ICorTp=0
 NAtoms=   10 NActive=   10 NUniq=   10 SFac= 1.00D+00 NAtFMM=   50 NAOKFM=F Big=F
 Leave Link  301 at Thu Jan 24 17:08:16 2019, MaxMem=  134217728 cpu:       0.1
 (Enter /home/programs/G09_64/g09/l302.exe)
 NPDir=0 NMtPBC=     1 NCelOv=     1 NCel=       1 NClECP=     1 NCelD=      1
         NCelK=      1 NCelE2=     1 NClLst=     1 CellRange=     0.0.
 One-electron integrals computed using PRISM.
 NBasis=    22 RedAO= T  NBF=    22
 NBsUse=    22 1.00D-06 NBFU=    22
 Leave Link  302 at Thu Jan 24 17:08:16 2019, MaxMem=  134217728 cpu:       0.1
 (Enter /home/programs/G09_64/g09/l303.exe)
 DipDrv:  MaxL=1.
 Leave Link  303 at Thu Jan 24 17:08:16 2019, MaxMem=  134217728 cpu:       0.0
 (Enter /home/programs/G09_64/g09/l401.exe)
 Harris functional with IExCor=  205 diagonalized for initial guess.
 ExpMin= 1.69D-01 ExpMax= 1.31D+02 ExpMxC= 1.31D+02 IAcc=1 IRadAn=         1 AccDes= 0.00D+00
 HarFok:  IExCor=  205 AccDes= 0.00D+00 IRadAn=         1 IDoV= 1
 ScaDFX=  1.000000  1.000000  1.000000  1.000000
 FoFCou: FMM=F IPFlag=           0 FMFlag=      100000 FMFlg1=           0
         NFxFlg=           0 DoJE=T BraDBF=F KetDBF=T FulRan=T
         Omega=  0.000000  0.000000  1.000000  0.000000  0.000000 ICntrl=     500 IOpCl=  0
         NMat0=    1 NMatS0=    1 NMatT0=    0 NMatD0=    1 NMtDS0=    0 NMtDT0=    0
         I1Cent=           4 NGrid=           0.
 Symmetry not used in FoFCou.
 Harris En= -152.799006264983    
 Initial guess <Sx>= 0.0000 <Sy>= 0.0000 <Sz>= 0.5000 <S**2>= 0.7500 S= 0.5000
 Leave Link  401 at Thu Jan 24 17:08:16 2019, MaxMem=  134217728 cpu:       0.2
 (Enter /home/programs/G09_64/g09/l502.exe)
 UHF open shell SCF:
 Requested convergence on RMS density matrix=1.00D-08 within 128 cycles.
 Requested convergence on MAX density matrix=1.00D-06.
 Requested convergence on             energy=1.00D-06.
 No special actions if energy rises.
 Using DIIS extrapolation, IDIIS=  1040.
 Two-electron integral symmetry not used.
 Keep R1 and R2 ints in memory in canonical form, NReq=884165.
 IEnd=       19882 IEndB=       19882 NGot=   134217728 MDV=   134150703
 LenX=   134150703 LenY=   134149778
 Symmetry not used in FoFDir.
 MinBra= 0 MaxBra= 1 Meth= 1.
 IRaf=       0 NMat=   1 IRICut=       1 DoRegI=T DoRafI=F ISym2E= 0 JSym2E=0.

 Cycle   1  Pass 1  IDiag  1:
 E= -152.510022084758    
 DIIS: error= 4.46D-02 at cycle   1 NSaved=   1.
 NSaved= 1 IEnMin= 1 EnMin= -152.510022084758     IErMin= 1 ErrMin= 4.46D-02
 ErrMax= 4.46D-02 EMaxC= 1.00D-01 BMatC= 2.84D-01 BMatP= 2.84D-01
 IDIUse=3 WtCom= 5.54D-01 WtEn= 4.46D-01
 Coeff-Com:  0.100D+01
 Coeff-En:   0.100D+01
 Coeff:      0.100D+01
 Gap=     1.010 Goal=   None    Shift=    0.000
 Gap=     0.495 Goal=   None    Shift=    0.000
 GapD=    0.495 DampG=2.000 DampE=0.500 DampFc=1.0000 IDamp=-1.
 RMSDP=1.63D-02 MaxDP=1.03D-01              OVMax= 0.00D+00

 Cycle   2  Pass 1  IDiag  1:
 E= -152.596991084840     Delta-E=       -0.086969000082 Rises=F Damp=F
 DIIS: error= 1.32D-02 at cycle   2 NSaved=   2.
 NSaved= 2 IEnMin= 2 EnMin= -152.596991084840     IErMin= 2 ErrMin= 1.32D-02
 ErrMax= 1.32D-02 EMaxC= 1.00D-01 BMatC= 1.66D-02 BMatP= 2.84D-01
 IDIUse=3 WtCom= 8.68D-01 WtEn= 1.32D-01
 Coeff-Com:  0.576D-01 0.942D+00
 Coeff-En:   0.000D+00 0.100D+01
 Coeff:      0.500D-01 0.950D+00
 Gap=     0.980 Goal=   None    Shift=    0.000
 Gap=     0.577 Goal=   None    Shift=    0.000
 RMSDP=4.46D-03 MaxDP=3.32D-02 DE=-8.70D-02 OVMax= 0.00D+00

 Cycle   3  Pass 1  IDiag  1:
 E= -152.604992918198     Delta-E=       -0.008001833359 Rises=F Damp=F
 DIIS: error= 6.03D-03 at cycle   3 NSaved=   3.
 NSaved= 3 IEnMin= 3 EnMin= -152.604992918198     IErMin= 3 ErrMin= 6.03D-03
 ErrMax= 6.03D-03 EMaxC= 1.00D-01 BMatC= 2.75D-03 BMatP= 1.66D-02
 IDIUse=3 WtCom= 9.40D-01 WtEn= 6.03D-02
 Coeff-Com: -0.490D-01-0.265D+00 0.131D+01
 Coeff-En:   0.000D+00 0.000D+00 0.100D+01
 Coeff:     -0.461D-01-0.249D+00 0.129D+01
 Gap=     0.960 Goal=   None    Shift=    0.000
 Gap=     0.602 Goal=   None    Shift=    0.000
 RMSDP=2.52D-03 MaxDP=2.18D-02 DE=-8.00D-03 OVMax= 0.00D+00

 Cycle   4  Pass 1  IDiag  1:
 E= -152.607171610218     Delta-E=       -0.002178692019 Rises=F Damp=F
 DIIS: error= 2.05D-03 at cycle   4 NSaved=   4.
 NSaved= 4 IEnMin= 4 EnMin= -152.607171610218     IErMin= 4 ErrMin= 2.05D-03
 ErrMax= 2.05D-03 EMaxC= 1.00D-01 BMatC= 3.16D-04 BMatP= 2.75D-03
 IDIUse=3 WtCom= 9.79D-01 WtEn= 2.05D-02
 Coeff-Com:  0.810D-02-0.307D-01-0.334D+00 0.136D+01
 Coeff-En:   0.000D+00 0.000D+00 0.000D+00 0.100D+01
 Coeff:      0.793D-02-0.301D-01-0.327D+00 0.135D+01
 Gap=     0.960 Goal=   None    Shift=    0.000
 Gap=     0.610 Goal=   None    Shift=    0.000
 RMSDP=1.15D-03 MaxDP=1.13D-02 DE=-2.18D-03 OVMax= 0.00D+00

 Cycle   5  Pass 1  IDiag  1:
 E= -152.607515221684     Delta-E=       -0.000343611466 Rises=F Damp=F
 DIIS: error= 1.04D-03 at cycle   5 NSaved=   5.
 NSaved= 5 IEnMin= 5 EnMin= -152.607515221684     IErMin= 5 ErrMin= 1.04D-03
 ErrMax= 1.04D-03 EMaxC= 1.00D-01 BMatC= 5.56D-05 BMatP= 3.16D-04
 IDIUse=3 WtCom= 9.90D-01 WtEn= 1.04D-02
 Coeff-Com: -0.429D-03 0.267D-01 0.961D-01-0.627D+00 0.151D+01
 Coeff-En:   0.000D+00 0.000D+00 0.000D+00 0.000D+00 0.100D+01
 Coeff:     -0.424D-03 0.264D-01 0.951D-01-0.621D+00 0.150D+01
 Gap=     0.958 Goal=   None    Shift=    0.000
 Gap=     0.612 Goal=   None    Shift=    0.000
 RMSDP=5.26D-04 MaxDP=6.25D-03 DE=-3.44D-04 OVMax= 0.00D+00

 Cycle   6  Pass 1  IDiag  1:
 E= -152.607591391469     Delta-E=       -0.000076169785 Rises=F Damp=F
 DIIS: error= 6.54D-04 at cycle   6 NSaved=   6.
 NSaved= 6 IEnMin= 6 EnMin= -152.607591391469     IErMin= 6 ErrMin= 6.54D-04
 ErrMax= 6.54D-04 EMaxC= 1.00D-01 BMatC= 2.06D-05 BMatP= 5.56D-05
 IDIUse=3 WtCom= 9.93D-01 WtEn= 6.54D-03
 Coeff-Com: -0.141D-02-0.887D-02 0.608D-01-0.602D-01-0.124D+01 0.225D+01
 Coeff-En:   0.000D+00 0.000D+00 0.000D+00 0.000D+00 0.000D+00 0.100D+01
 Coeff:     -0.140D-02-0.881D-02 0.604D-01-0.598D-01-0.123D+01 0.224D+01
 Gap=     0.957 Goal=   None    Shift=    0.000
 Gap=     0.613 Goal=   None    Shift=    0.000
 RMSDP=6.58D-04 MaxDP=8.08D-03 DE=-7.62D-05 OVMax= 0.00D+00

 Cycle   7  Pass 1  IDiag  1:
 E= -152.607634890494     Delta-E=       -0.000043499026 Rises=F Damp=F
 DIIS: error= 1.58D-04 at cycle   7 NSaved=   7.
 NSaved= 7 IEnMin= 7 EnMin= -152.607634890494     IErMin= 7 ErrMin= 1.58D-04
 ErrMax= 1.58D-04 EMaxC= 1.00D-01 BMatC= 1.28D-06 BMatP= 2.06D-05
 IDIUse=3 WtCom= 9.98D-01 WtEn= 1.58D-03
 Coeff-Com:  0.676D-03-0.584D-03-0.379D-01 0.121D+00 0.258D+00-0.848D+00
 Coeff-Com:  0.151D+01
 Coeff-En:   0.000D+00 0.000D+00 0.000D+00 0.000D+00 0.000D+00 0.000D+00
 Coeff-En:   0.100D+01
 Coeff:      0.675D-03-0.583D-03-0.379D-01 0.121D+00 0.258D+00-0.847D+00
 Coeff:      0.151D+01
 Gap=     0.956 Goal=   None    Shift=    0.000
 Gap=     0.613 Goal=   None    Shift=    0.000
 RMSDP=1.41D-04 MaxDP=1.83D-03 DE=-4.35D-05 OVMax= 0.00D+00

 Cycle   8  Pass 1  IDiag  1:
 E= -152.607637079924     Delta-E=       -0.000002189430 Rises=F Damp=F
 DIIS: error= 4.05D-05 at cycle   8 NSaved=   8.
 NSaved= 8 IEnMin= 8 EnMin= -152.607637079924     IErMin= 8 ErrMin= 4.05D-05
 ErrMax= 4.05D-05 EMaxC= 1.00D-01 BMatC= 1.28D-07 BMatP= 1.28D-06
 IDIUse=1 WtCom= 1.00D+00 WtEn= 0.00D+00
 Coeff-Com: -0.268D-04 0.703D-03 0.227D-02-0.153D-01 0.388D-01-0.766D-02
 Coeff-Com: -0.292D+00 0.127D+01
 Coeff:     -0.268D-04 0.703D-03 0.227D-02-0.153D-01 0.388D-01-0.766D-02
 Coeff:     -0.292D+00 0.127D+01
 Gap=     0.956 Goal=   None    Shift=    0.000
 Gap=     0.613 Goal=   None    Shift=    0.000
 RMSDP=2.70D-05 MaxDP=3.05D-04 DE=-2.19D-06 OVMax= 0.00D+00

 Cycle   9  Pass 1  IDiag  1:
 E= -152.607637232462     Delta-E=       -0.000000152538 Rises=F Damp=F
 DIIS: error= 1.81D-05 at cycle   9 NSaved=   9.
 NSaved= 9 IEnMin= 9 EnMin= -152.607637232462     IErMin= 9 ErrMin= 1.81D-05
 ErrMax= 1.81D-05 EMaxC= 1.00D-01 BMatC= 2.95D-08 BMatP= 1.28D-07
 IDIUse=1 WtCom= 1.00D+00 WtEn= 0.00D+00
 Coeff-Com: -0.117D-03-0.230D-03 0.760D-02-0.195D-01-0.855D-01 0.213D+00
 Coeff-Com: -0.226D+00-0.598D+00 0.171D+01
 Coeff:     -0.117D-03-0.230D-03 0.760D-02-0.195D-01-0.855D-01 0.213D+00
 Coeff:     -0.226D+00-0.598D+00 0.171D+01
 Gap=     0.956 Goal=   None    Shift=    0.000
 Gap=     0.613 Goal=   None    Shift=    0.000
 RMSDP=1.68D-05 MaxDP=2.01D-04 DE=-1.53D-07 OVMax= 0.00D+00

 Cycle  10  Pass 1  IDiag  1:
 E= -152.607637272882     Delta-E=       -0.000000040420 Rises=F Damp=F
 DIIS: error= 5.97D-06 at cycle  10 NSaved=  10.
 NSaved=10 IEnMin=10 EnMin= -152.607637272882     IErMin=10 ErrMin= 5.97D-06
 ErrMax= 5.97D-06 EMaxC= 1.00D-01 BMatC= 2.28D-09 BMatP= 2.95D-08
 IDIUse=1 WtCom= 1.00D+00 WtEn= 0.00D+00
 Coeff-Com:  0.809D-04-0.379D-04-0.503D-02 0.148D-01 0.417D-01-0.121D+00
 Coeff-Com:  0.164D+00 0.192D+00-0.938D+00 0.165D+01
 Coeff:      0.809D-04-0.379D-04-0.503D-02 0.148D-01 0.417D-01-0.121D+00
 Coeff:      0.164D+00 0.192D+00-0.938D+00 0.165D+01
 Gap=     0.956 Goal=   None    Shift=    0.000
 Gap=     0.613 Goal=   None    Shift=    0.000
 RMSDP=4.97D-06 MaxDP=5.82D-05 DE=-4.04D-08 OVMax= 0.00D+00

 Cycle  11  Pass 1  IDiag  1:
 E= -152.607637275841     Delta-E=       -0.000000002959 Rises=F Damp=F
 DIIS: error= 1.17D-06 at cycle  11 NSaved=  11.
 NSaved=11 IEnMin=11 EnMin= -152.607637275841     IErMin=11 ErrMin= 1.17D-06
 ErrMax= 1.17D-06 EMaxC= 1.00D-01 BMatC= 2.27D-10 BMatP= 2.28D-09
 IDIUse=1 WtCom= 1.00D+00 WtEn= 0.00D+00
 Coeff-Com: -0.393D-04 0.386D-04 0.241D-02-0.701D-02-0.174D-01 0.542D-01
 Coeff-Com: -0.790D-01-0.622D-01 0.422D+00-0.101D+01 0.169D+01
 Coeff:     -0.393D-04 0.386D-04 0.241D-02-0.701D-02-0.174D-01 0.542D-01
 Coeff:     -0.790D-01-0.622D-01 0.422D+00-0.101D+01 0.169D+01
 Gap=     0.956 Goal=   None    Shift=    0.000
 Gap=     0.613 Goal=   None    Shift=    0.000
 RMSDP=1.25D-06 MaxDP=1.01D-05 DE=-2.96D-09 OVMax= 0.00D+00

 Cycle  12  Pass 1  IDiag  1:
 E= -152.607637276090     Delta-E=       -0.000000000248 Rises=F Damp=F
 DIIS: error= 1.06D-06 at cycle  12 NSaved=  12.
 NSaved=12 IEnMin=12 EnMin= -152.607637276090     IErMin=12 ErrMin= 1.06D-06
 ErrMax= 1.06D-06 EMaxC= 1.00D-01 BMatC= 4.10D-11 BMatP= 2.27D-10
 IDIUse=1 WtCom= 1.00D+00 WtEn= 0.00D+00
 Coeff-Com:  0.807D-05-0.223D-04-0.450D-03 0.129D-02 0.120D-02-0.669D-02
 Coeff-Com:  0.139D-01-0.794D-02-0.476D-01 0.224D+00-0.742D+00 0.156D+01
 Coeff:      0.807D-05-0.223D-04-0.450D-03 0.129D-02 0.120D-02-0.669D-02
 Coeff:      0.139D-01-0.794D-02-0.476D-01 0.224D+00-0.742D+00 0.156D+01
 Gap=     0.956 Goal=   None    Shift=    0.000
 Gap=     0.613 Goal=   None    Shift=    0.000
 RMSDP=5.94D-07 MaxDP=4.52D-06 DE=-2.48D-10 OVMax= 0.00D+00

 Cycle  13  Pass 1  IDiag  1:
 E= -152.607637276154     Delta-E=       -0.000000000064 Rises=F Damp=F
 DIIS: error= 9.93D-07 at cycle  13 NSaved=  13.
 NSaved=13 IEnMin=13 EnMin= -152.607637276154     IErMin=13 ErrMin= 9.93D-07
 ErrMax= 9.93D-07 EMaxC= 1.00D-01 BMatC= 1.55D-11 BMatP= 4.10D-11
 IDIUse=1 WtCom= 1.00D+00 WtEn= 0.00D+00
 Coeff-Com: -0.474D-05 0.192D-04 0.263D-03-0.732D-03 0.683D-05 0.262D-02
 Coeff-Com: -0.741D-02 0.108D-01 0.136D-01-0.112D+00 0.452D+00-0.136D+01
 Coeff-Com:  0.200D+01
 Coeff:     -0.474D-05 0.192D-04 0.263D-03-0.732D-03 0.683D-05 0.262D-02
 Coeff:     -0.741D-02 0.108D-01 0.136D-01-0.112D+00 0.452D+00-0.136D+01
 Coeff:      0.200D+01
 Gap=     0.956 Goal=   None    Shift=    0.000
 Gap=     0.613 Goal=   None    Shift=    0.000
 RMSDP=4.36D-07 MaxDP=5.36D-06 DE=-6.41D-11 OVMax= 0.00D+00

 Cycle  14  Pass 1  IDiag  1:
 E= -152.607637276194     Delta-E=       -0.000000000040 Rises=F Damp=F
 DIIS: error= 9.13D-07 at cycle  14 NSaved=  14.
 NSaved=14 IEnMin=14 EnMin= -152.607637276194     IErMin=14 ErrMin= 9.13D-07
 ErrMax= 9.13D-07 EMaxC= 1.00D-01 BMatC= 1.00D-11 BMatP= 1.55D-11
 IDIUse=1 WtCom= 1.00D+00 WtEn= 0.00D+00
 Coeff-Com:  0.365D-05-0.202D-04-0.197D-03 0.518D-03-0.669D-03-0.756D-03
 Coeff-Com:  0.492D-02-0.138D-01 0.283D-02 0.674D-01-0.345D+00 0.127D+01
 Coeff-Com: -0.247D+01 0.249D+01
 Coeff:      0.365D-05-0.202D-04-0.197D-03 0.518D-03-0.669D-03-0.756D-03
 Coeff:      0.492D-02-0.138D-01 0.283D-02 0.674D-01-0.345D+00 0.127D+01
 Coeff:     -0.247D+01 0.249D+01
 Gap=     0.956 Goal=   None    Shift=    0.000
 Gap=     0.613 Goal=   None    Shift=    0.000
 RMSDP=4.90D-07 MaxDP=6.67D-06 DE=-4.02D-11 OVMax= 0.00D+00

 Cycle  15  Pass 1  IDiag  1:
 E= -152.607637276234     Delta-E=       -0.000000000040 Rises=F Damp=F
 DIIS: error= 8.14D-07 at cycle  15 NSaved=  15.
 NSaved=15 IEnMin=15 EnMin= -152.607637276234     IErMin=15 ErrMin= 8.14D-07
 ErrMax= 8.14D-07 EMaxC= 1.00D-01 BMatC= 7.95D-12 BMatP= 1.00D-11
 IDIUse=1 WtCom= 1.00D+00 WtEn= 0.00D+00
 Coeff-Com: -0.190D-05 0.304D-04 0.766D-04-0.863D-04 0.294D-02-0.454D-02
 Coeff-Com:  0.415D-03 0.292D-01-0.522D-01 0.265D-01 0.213D+00-0.149D+01
 Coeff-Com:  0.405D+01-0.656D+01 0.478D+01
 Coeff:     -0.190D-05 0.304D-04 0.766D-04-0.863D-04 0.294D-02-0.454D-02
 Coeff:      0.415D-03 0.292D-01-0.522D-01 0.265D-01 0.213D+00-0.149D+01
 Coeff:      0.405D+01-0.656D+01 0.478D+01
 Gap=     0.956 Goal=   None    Shift=    0.000
 Gap=     0.613 Goal=   None    Shift=    0.000
 RMSDP=1.18D-06 MaxDP=1.64D-05 DE=-4.02D-11 OVMax= 0.00D+00

 Cycle  16  Pass 1  IDiag  1:
 E= -152.607637276313     Delta-E=       -0.000000000079 Rises=F Damp=F
 DIIS: error= 5.69D-07 at cycle  16 NSaved=  16.
 NSaved=16 IEnMin=16 EnMin= -152.607637276313     IErMin=16 ErrMin= 5.69D-07
 ErrMax= 5.69D-07 EMaxC= 1.00D-01 BMatC= 4.25D-12 BMatP= 7.95D-12
 IDIUse=1 WtCom= 1.00D+00 WtEn= 0.00D+00
 Coeff-Com:  0.381D-06-0.208D-04-0.615D-05-0.129D-03-0.246D-02 0.453D-02
 Coeff-Com: -0.223D-02-0.223D-01 0.500D-01-0.709D-01 0.399D-01 0.576D+00
 Coeff-Com: -0.234D+01 0.486D+01-0.570D+01 0.362D+01
 Coeff:      0.381D-06-0.208D-04-0.615D-05-0.129D-03-0.246D-02 0.453D-02
 Coeff:     -0.223D-02-0.223D-01 0.500D-01-0.709D-01 0.399D-01 0.576D+00
 Coeff:     -0.234D+01 0.486D+01-0.570D+01 0.362D+01
 Gap=     0.956 Goal=   None    Shift=    0.000
 Gap=     0.613 Goal=   None    Shift=    0.000
 RMSDP=2.13D-06 MaxDP=2.98D-05 DE=-7.90D-11 OVMax= 0.00D+00

 Cycle  17  Pass 1  IDiag  1:
 E= -152.607637276385     Delta-E=       -0.000000000072 Rises=F Damp=F
 DIIS: error= 1.25D-07 at cycle  17 NSaved=  17.
 NSaved=17 IEnMin=17 EnMin= -152.607637276385     IErMin=17 ErrMin= 1.25D-07
 ErrMax= 1.25D-07 EMaxC= 1.00D-01 BMatC= 5.43D-13 BMatP= 4.25D-12
 IDIUse=1 WtCom= 1.00D+00 WtEn= 0.00D+00
 Coeff-Com:  0.644D-06 0.375D-05-0.391D-04 0.170D-03 0.813D-03-0.199D-02
 Coeff-Com:  0.199D-02 0.610D-02-0.208D-01 0.512D-01-0.128D+00 0.163D+00
 Coeff-Com:  0.160D+00-0.941D+00 0.200D+01-0.213D+01 0.183D+01
 Coeff:      0.644D-06 0.375D-05-0.391D-04 0.170D-03 0.813D-03-0.199D-02
 Coeff:      0.199D-02 0.610D-02-0.208D-01 0.512D-01-0.128D+00 0.163D+00
 Coeff:      0.160D+00-0.941D+00 0.200D+01-0.213D+01 0.183D+01
 Gap=     0.956 Goal=   None    Shift=    0.000
 Gap=     0.613 Goal=   None    Shift=    0.000
 RMSDP=5.14D-07 MaxDP=7.15D-06 DE=-7.17D-11 OVMax= 0.00D+00

 Cycle  18  Pass 1  IDiag  1:
 E= -152.607637276389     Delta-E=       -0.000000000004 Rises=F Damp=F
 DIIS: error= 2.26D-08 at cycle  18 NSaved=  18.
 NSaved=18 IEnMin=18 EnMin= -152.607637276389     IErMin=18 ErrMin= 2.26D-08
 ErrMax= 2.26D-08 EMaxC= 1.00D-01 BMatC= 5.79D-14 BMatP= 5.43D-13
 IDIUse=1 WtCom= 1.00D+00 WtEn= 0.00D+00
 Large coefficients: NSaved= 18 BigCof=    0.00 CofMax=   10.00 Det=-8.60D-15
 Inversion failed.  Reducing to 17 matrices.
 Coeff-Com: -0.160D-05-0.712D-06-0.294D-04-0.183D-03 0.433D-03-0.304D-03
 Coeff-Com: -0.207D-02 0.653D-02-0.207D-01 0.706D-01-0.144D+00 0.985D-01
 Coeff-Com:  0.143D+00-0.845D+00 0.124D+01-0.151D+01 0.196D+01
 Coeff:     -0.160D-05-0.712D-06-0.294D-04-0.183D-03 0.433D-03-0.304D-03
 Coeff:     -0.207D-02 0.653D-02-0.207D-01 0.706D-01-0.144D+00 0.985D-01
 Coeff:      0.143D+00-0.845D+00 0.124D+01-0.151D+01 0.196D+01
 Gap=     0.956 Goal=   None    Shift=    0.000
 Gap=     0.613 Goal=   None    Shift=    0.000
 RMSDP=8.06D-08 MaxDP=1.09D-06 DE=-3.98D-12 OVMax= 0.00D+00

 Cycle  19  Pass 1  IDiag  1:
 E= -152.607637276389     Delta-E=        0.000000000000 Rises=F Damp=F
 DIIS: error= 4.92D-09 at cycle  19 NSaved=  18.
 NSaved=18 IEnMin=18 EnMin= -152.607637276389     IErMin=18 ErrMin= 4.92D-09
 ErrMax= 4.92D-09 EMaxC= 1.00D-01 BMatC= 3.57D-15 BMatP= 5.79D-14
 IDIUse=1 WtCom= 1.00D+00 WtEn= 0.00D+00
 Large coefficients: NSaved= 18 BigCof=    0.00 CofMax=   10.00 Det=-1.98D-15
 Inversion failed.  Reducing to 17 matrices.
 Large coefficients: NSaved= 17 BigCof=    0.00 CofMax=   10.00 Det=-2.29D-15
 Inversion failed.  Reducing to 16 matrices.
 Large coefficients: NSaved= 16 BigCof=    0.00 CofMax=   10.00 Det=-2.30D-15
 Inversion failed.  Reducing to 15 matrices.
 Coeff-Com: -0.171D-04 0.236D-04-0.124D-04-0.962D-04 0.302D-04 0.116D-02
 Coeff-Com: -0.725D-02 0.265D-01-0.586D-01 0.959D-01-0.381D-01-0.579D-01
 Coeff-Com:  0.155D+00-0.455D+00 0.134D+01
 Coeff:     -0.171D-04 0.236D-04-0.124D-04-0.962D-04 0.302D-04 0.116D-02
 Coeff:     -0.725D-02 0.265D-01-0.586D-01 0.959D-01-0.381D-01-0.579D-01
 Coeff:      0.155D+00-0.455D+00 0.134D+01
 Gap=     0.956 Goal=   None    Shift=    0.000
 Gap=     0.613 Goal=   None    Shift=    0.000
 RMSDP=9.83D-09 MaxDP=1.18D-07 DE=-1.14D-13 OVMax= 0.00D+00

 SCF Done:  E(UHF) =  -152.607637276     A.U. after   19 cycles
             Convg  =    0.9827D-08             -V/T =  2.0065
 <Sx>= 0.0000 <Sy>= 0.0000 <Sz>= 0.5000 <S**2>= 0.7761 S= 0.5130
 <L.S>= 0.000000000000E+00
 KE= 1.516257122750D+02 PE=-5.311951428530D+02 EE= 1.403936695429D+02
 Annihilation of the first spin contaminant:
 S**2 before annihilation     0.7761,   after     0.7502
 Leave Link  502 at Thu Jan 24 17:08:17 2019, MaxMem=  134217728 cpu:       0.1
 (Enter /home/programs/G09_64/g09/l801.exe)
 Range of M.O.s used for correlation:     1    22
 NBasis=    22 NAE=    14 NBE=    13 NFC=     0 NFV=     0
 NROrb=     22 NOA=    14 NOB=    13 NVA=     8 NVB=     9
 Leave Link  801 at Thu Jan 24 17:08:17 2019, MaxMem=  134217728 cpu:       0.0
 (Enter /home/programs/G09_64/g09/l1101.exe)
 Using compressed storage, NAtomX=    10.
 Will process  11 centers per pass.
 Leave Link 1101 at Thu Jan 24 17:08:17 2019, MaxMem=  134217728 cpu:       0.1
 (Enter /home/programs/G09_64/g09/l1102.exe)
 Symmetrizing basis deriv contribution to polar:
 IMax=3 JMax=2 DiffMx= 0.00D+00
 Leave Link 1102 at Thu Jan 24 17:08:17 2019, MaxMem=  134217728 cpu:       0.0
 (Enter /home/programs/G09_64/g09/l1110.exe)
 Forming Gx(P) for the SCF density, NAtomX=    10.
 Integral derivatives from FoFDir/FoFCou, PRISM(SPDF).
 Do as many integral derivatives as possible in FoFDir.
 G2DrvN: MDV=     134217544.
 G2DrvN: will do    11 centers at a time, making    1 passes doing MaxLOS=1.
 Calling FoFCou, ICntrl=  3107 FMM=F I1Cent=   0 AccDes= 0.00D+00.
 FoFCou: FMM=F IPFlag=           0 FMFlag=      100000 FMFlg1=           0
         NFxFlg=           0 DoJE=F BraDBF=F KetDBF=F FulRan=T
         Omega=  0.000000  0.000000  1.000000  0.000000  0.000000 ICntrl=    3107 IOpCl=  1
         NMat0=    1 NMatS0=    1 NMatT0=    0 NMatD0=    1 NMtDS0=    0 NMtDT0=    0
         I1Cent=           0 NGrid=           0.
 Symmetry not used in FoFCou.
 FoFDir/FoFCou used for L=0 through L=1.
 End of G2Drv Frequency-dependent properties file   721 does not exist.
 End of G2Drv Frequency-dependent properties file   722 does not exist.
 Leave Link 1110 at Thu Jan 24 17:08:17 2019, MaxMem=  134217728 cpu:       0.1
 (Enter /home/programs/G09_64/g09/l1002.exe)
 Minotr:  UHF open shell wavefunction.
          IDoAtm=1111111111
          Direct CPHF calculation.
          Differentiating once with respect to nuclear coordinates.
          Requested convergence is 1.0D-06 RMS, and 1.0D-05 maximum.
          Secondary convergence is 1.0D-12 RMS, and 1.0D-12 maximum.
          NewPWx=T KeepS1=F KeepF1=F KeepIn=T MapXYZ=F SortEE=F KeepMc=T.
          MDV=     134217624 using IRadAn=       2.
          Keep R1 and R2 ints in memory in canonical form, NReq=864982.
 Symmetry not used in FoFDir.
 MinBra= 0 MaxBra= 1 Meth= 1.
 IRaf=       0 NMat=   1 IRICut=       1 DoRegI=T DoRafI=F ISym2E= 0 JSym2E=0.
          Solving linear equations simultaneously, MaxMat=       0.
          There are    33 degrees of freedom in the 1st order CPHF.  IDoFFX=5.
     27 vectors produced by pass  0 Test12= 6.94D-12 3.03D-07 XBig12= 5.77D-02 1.43D-01.
 AX will form    27 AO Fock derivatives at one time.
     27 vectors produced by pass  1 Test12= 6.94D-12 3.03D-07 XBig12= 5.81D-04 7.19D-03.
     27 vectors produced by pass  2 Test12= 6.94D-12 3.03D-07 XBig12= 5.66D-06 6.25D-04.
     27 vectors produced by pass  3 Test12= 6.94D-12 3.03D-07 XBig12= 4.95D-08 5.64D-05.
     11 vectors produced by pass  4 Test12= 6.94D-12 3.03D-07 XBig12= 4.07D-10 4.45D-06.
 Inverted reduced A of dimension   119 with in-core refinement.
 End of Minotr Frequency-dependent properties file   721 does not exist.
 End of Minotr Frequency-dependent properties file   722 does not exist.
 Leave Link 1002 at Thu Jan 24 17:08:17 2019, MaxMem=  134217728 cpu:       0.1
 (Enter /home/programs/G09_64/g09/l601.exe)
 Copying SCF densities to generalized density rwf, IOpCl= 1 IROHF=0.

 **********************************************************************

            Population analysis using the SCF density.

 **********************************************************************

 Alpha  occ. eigenvalues --  -20.31318 -11.10726 -11.05974  -1.34359  -0.98751
 Alpha  occ. eigenvalues --   -0.80912  -0.69391  -0.63344  -0.55755  -0.51716
 Alpha  occ. eigenvalues --   -0.50966  -0.48047  -0.39538  -0.37503
 Alpha virt. eigenvalues --    0.58132   0.63104   0.66833   0.70098   0.74077
 Alpha virt. eigenvalues --    0.75872   0.77240   0.79436
  Beta  occ. eigenvalues --  -20.28929 -11.10996 -11.05807  -1.23085  -0.97007
  Beta  occ. eigenvalues --   -0.80092  -0.62876  -0.60967  -0.52377  -0.50354
  Beta  occ. eigenvalues --   -0.49660  -0.41536  -0.36224
  Beta virt. eigenvalues --    0.25114   0.60171   0.63182   0.67421   0.70940
  Beta virt. eigenvalues --    0.75237   0.76006   0.77233   0.88029
          Condensed to atoms (all electrons):
              1          2          3          4          5          6
     1  C    4.733542   0.356563  -0.018901   0.384271   0.385523   0.385622
     2  C    0.356563   4.721738   0.247529  -0.020109  -0.021797  -0.021749
     3  O   -0.018901   0.247529   7.937123   0.000674  -0.000872  -0.000873
     4  H    0.384271  -0.020109   0.000674   0.608570  -0.020299  -0.020342
     5  H    0.385523  -0.021797  -0.000872  -0.020299   0.607358  -0.021482
     6  H    0.385622  -0.021749  -0.000873  -0.020342  -0.021482   0.607132
     7  H   -0.021817   0.378713  -0.017161  -0.002047  -0.002682   0.001925
     8  H   -0.021804   0.378555  -0.017117  -0.002053   0.001925  -0.002661
     9  H    0.000833  -0.014162   0.043921  -0.000019   0.000000   0.000000
    10  H    0.000018   0.001396  -0.032483   0.000001  -0.000004  -0.000004
              7          8          9         10
     1  C   -0.021817  -0.021804   0.000833   0.000018
     2  C    0.378713   0.378555  -0.014162   0.001396
     3  O   -0.017161  -0.017117   0.043921  -0.032483
     4  H   -0.002047  -0.002053  -0.000019   0.000001
     5  H   -0.002682   0.001925   0.000000  -0.000004
     6  H    0.001925  -0.002661   0.000000  -0.000004
     7  H    0.626853  -0.027629  -0.001358  -0.000430
     8  H   -0.027629   0.627081  -0.001355  -0.000429
     9  H   -0.001358  -0.001355   0.596278   0.312382
    10  H   -0.000430  -0.000429   0.312382   0.797894
 Mulliken atomic charges:
              1
     1  C   -0.183850
     2  C   -0.006676
     3  O   -0.141841
     4  H    0.071352
     5  H    0.072329
     6  H    0.072432
     7  H    0.065632
     8  H    0.065486
     9  H    0.063478
    10  H   -0.078342
 Sum of Mulliken atomic charges =   0.00000
 Mulliken charges with hydrogens summed into heavy atoms:
              1
     1  C    0.032263
     2  C    0.124442
     3  O   -0.156705
 Sum of Mulliken charges with hydrogens summed into heavy atoms =   0.00000
          Atomic-Atomic Spin Densities.
              1          2          3          4          5          6
     1  C    0.057013   0.006227  -0.007080  -0.002212  -0.000539  -0.000537
     2  C    0.006227  -0.099169  -0.014301   0.000111   0.000387   0.000385
     3  O   -0.007080  -0.014301   0.914860   0.000128  -0.000031  -0.000031
     4  H   -0.002212   0.000111   0.000128   0.002286   0.000200   0.000200
     5  H   -0.000539   0.000387  -0.000031   0.000200  -0.003993   0.000144
     6  H   -0.000537   0.000385  -0.000031   0.000200   0.000144  -0.003990
     7  H   -0.002349   0.001936  -0.001279   0.000305  -0.000018   0.000001
     8  H   -0.002347   0.001933  -0.001274   0.000306   0.000001  -0.000018
     9  H   -0.000077  -0.001010   0.020355   0.000000   0.000003   0.000003
    10  H   -0.000106   0.000695  -0.023915   0.000003   0.000000   0.000000
              7          8          9         10
     1  C   -0.002349  -0.002347  -0.000077  -0.000106
     2  C    0.001936   0.001933  -0.001010   0.000695
     3  O   -0.001279  -0.001274   0.020355  -0.023915
     4  H    0.000305   0.000306   0.000000   0.000003
     5  H   -0.000018   0.000001   0.000003   0.000000
     6  H    0.000001  -0.000018   0.000003   0.000000
     7  H    0.011875   0.000888   0.000375   0.000611
     8  H    0.000888   0.011871   0.000374   0.000610
     9  H    0.000375   0.000374  -0.200695  -0.011585
    10  H    0.000611   0.000610  -0.011585   0.374992
 Mulliken atomic spin densities:
              1
     1  C    0.047995
     2  C   -0.102805
     3  O    0.887434
     4  H    0.001329
     5  H   -0.003847
     6  H   -0.003844
     7  H    0.012345
     8  H    0.012343
     9  H   -0.192256
    10  H    0.341306
 Sum of Mulliken atomic spin densities =   1.00000
 APT atomic charges:
              1
     1  C   -1.001739
     2  C   -0.497923
     3  O   -0.168659
     4  H    0.419423
     5  H    0.314455
     6  H    0.314914
     7  H    0.326073
     8  H    0.326202
     9  H   -0.380965
    10  H    0.348218
 Sum of APT charges=   0.00000
 APT Atomic charges with hydrogens summed into heavy atoms:
              1
     1  C    0.047053
     2  C    0.154353
     3  O   -0.201406
     4  H    0.000000
     5  H    0.000000
     6  H    0.000000
     7  H    0.000000
     8  H    0.000000
     9  H    0.000000
    10  H    0.000000
 Sum of APT charges=   0.00000
 Electronic spatial extent (au):  <R**2>=            226.3931
 Charge=              0.0000 electrons
 Dipole moment (field-independent basis, Debye):
    X=              1.5463    Y=              0.6626    Z=             -0.0022  Tot=              1.6823
 Quadrupole moment (field-independent basis, Debye-Ang):
   XX=            -22.0294   YY=            -19.4774   ZZ=            -19.3664
   XY=             -0.3264   XZ=              0.0012   YZ=              0.0001
 Traceless Quadrupole moment (field-independent basis, Debye-Ang):
   XX=             -1.7383   YY=              0.8137   ZZ=              0.9247
   XY=             -0.3264   XZ=              0.0012   YZ=              0.0001
 Octapole moment (field-independent basis, Debye-Ang**2):
  XXX=              2.8530  YYY=             -5.0516  ZZZ=              0.0119  XYY=             -0.3410
  XXY=             -1.4485  XXZ=             -0.0031  XZZ=             -0.6779  YZZ=             -1.6562
  YYZ=              0.0012  XYZ=             -0.0007
 Hexadecapole moment (field-independent basis, Debye-Ang**3):
 XXXX=           -212.1752 YYYY=            -51.6935 ZZZZ=            -27.8463 XXXY=             10.1684
 XXXZ=              0.0390 YYYX=              6.8835 YYYZ=              0.0300 ZZZX=              0.0532
 ZZZY=              0.0160 XXYY=            -41.6071 XXZZ=            -38.3029 YYZZ=            -12.0470
 XXYZ=              0.0038 YYXZ=              0.0093 ZZXY=              1.2920
 N-N= 8.656812375866D+01 E-N=-7.903498704291D+02  KE= 2.262343077649D+02
  Exact polarizability:   0.000   0.000   0.000   0.000   0.000   0.000
 Approx polarizability:  14.771  -1.848  12.058  -0.006  -0.010   8.969
                          Isotropic Fermi Contact Couplings
        Atom                 a.u.       MegaHertz       Gauss      10(-4) cm-1
     1  C(13)              0.02937      33.02082      11.78265      11.01456
     2  C(13)             -0.03728     -41.91195     -14.95523     -13.98032
     3  O(17)              0.02155     -13.06144      -4.66065      -4.35683
     4  H(1)               0.00085       3.78914       1.35206       1.26392
     5  H(1)              -0.00151      -6.74735      -2.40762      -2.25067
     6  H(1)              -0.00151      -6.74083      -2.40530      -2.24850
     7  H(1)               0.00474      21.17249       7.55487       7.06238
     8  H(1)               0.00474      21.16513       7.55224       7.05993
     9  H(1)              -0.07688    -343.62558    -122.61415    -114.62115
    10  H(1)               0.14249     636.90210     227.26250     212.44767
 --------------------------------------------------------
       Center         ----  Spin Dipole Couplings  ----
                      3XX-RR        3YY-RR        3ZZ-RR
 --------------------------------------------------------
     1   Atom        0.044271     -0.018160     -0.026112
     2   Atom       -0.000946      0.011392     -0.010446
     3   Atom        0.688314      0.571968     -1.260282
     4   Atom        0.006363     -0.000692     -0.005671
     5   Atom        0.010038     -0.007288     -0.002750
     6   Atom        0.010025     -0.007237     -0.002789
     7   Atom        0.001314      0.009931     -0.011244
     8   Atom        0.001289      0.009859     -0.011148
     9   Atom        0.184960     -0.047356     -0.137604
    10   Atom       -0.010060     -0.004914      0.014975
 --------------------------------------------------------
                        XY            XZ            YZ
 --------------------------------------------------------
     1   Atom       -0.017434      0.000022     -0.000020
     2   Atom        0.028504     -0.000095     -0.000072
     3   Atom       -1.745362      0.001289     -0.001681
     4   Atom        0.005692     -0.000022     -0.000017
     5   Atom       -0.002994      0.008079     -0.004232
     6   Atom       -0.003038     -0.008070      0.004261
     7   Atom        0.012236      0.008745      0.006491
     8   Atom        0.012171     -0.008794     -0.006576
     9   Atom       -0.165891      0.000088     -0.000053
    10   Atom        0.023282     -0.000025      0.000021
 --------------------------------------------------------


 ---------------------------------------------------------------------------------
              Anisotropic Spin Dipole Couplings in Principal Axis System
 ---------------------------------------------------------------------------------

       Atom             a.u.   MegaHertz   Gauss  10(-4) cm-1        Axes

              Baa    -0.0261    -3.504    -1.250    -1.169  0.0007  0.0040  1.0000
     1 C(13)  Bbb    -0.0227    -3.046    -1.087    -1.016  0.2519  0.9677 -0.0040
              Bcc     0.0488     6.550     2.337     2.185  0.9677 -0.2519  0.0004
 
              Baa    -0.0239    -3.213    -1.146    -1.072  0.7783 -0.6279  0.0021
     2 C(13)  Bbb    -0.0104    -1.402    -0.500    -0.468  0.0000  0.0033  1.0000
              Bcc     0.0344     4.614     1.647     1.539  0.6279  0.7783 -0.0026
 
              Baa    -1.2603    91.193    32.540    30.419  0.0011  0.0020  1.0000
     3 O(17)  Bbb    -1.1162    80.767    28.820    26.941  0.6952  0.7188 -0.0022
              Bcc     2.3765  -171.960   -61.360   -57.360  0.7188 -0.6952  0.0006
 
              Baa    -0.0057    -3.026    -1.080    -1.009  0.0003  0.0031  1.0000
     4 H(1)   Bbb    -0.0039    -2.060    -0.735    -0.687 -0.4864  0.8737 -0.0026
              Bcc     0.0095     5.086     1.815     1.697  0.8737  0.4864 -0.0018
 
              Baa    -0.0100    -5.344    -1.907    -1.783 -0.1224  0.7924  0.5976
     5 H(1)   Bbb    -0.0049    -2.599    -0.927    -0.867 -0.4760 -0.5752  0.6652
              Bcc     0.0149     7.944     2.834     2.650  0.8709 -0.2030  0.4476
 
              Baa    -0.0100    -5.344    -1.907    -1.783 -0.1230  0.7888 -0.6023
     6 H(1)   Bbb    -0.0049    -2.599    -0.927    -0.867  0.4765  0.5793  0.6614
              Bcc     0.0149     7.943     2.834     2.650  0.8706 -0.2056 -0.4470
 
              Baa    -0.0157    -8.394    -2.995    -2.800 -0.4500 -0.0113  0.8930
     7 H(1)   Bbb    -0.0061    -3.274    -1.168    -1.092  0.6798 -0.6528  0.3343
              Bcc     0.0219    11.668     4.163     3.892  0.5791  0.7575  0.3014
 
              Baa    -0.0157    -8.379    -2.990    -2.795  0.4512  0.0147  0.8923
     8 H(1)   Bbb    -0.0061    -3.267    -1.166    -1.090  0.6793 -0.6541 -0.3327
              Bcc     0.0218    11.646     4.156     3.885  0.5788  0.7562 -0.3051
 
              Baa    -0.1376   -73.419   -26.198   -24.490  0.0006  0.0017  1.0000
     9 H(1)   Bbb    -0.1337   -71.343   -25.457   -23.797  0.4617  0.8870 -0.0017
              Bcc     0.2713   144.762    51.655    48.287  0.8870 -0.4617  0.0003
 
              Baa    -0.0309   -16.492    -5.885    -5.501  0.7449 -0.6671  0.0007
    10 H(1)   Bbb     0.0150     7.990     2.851     2.665  0.0005  0.0017  1.0000
              Bcc     0.0159     8.503     3.034     2.836  0.6671  0.7449 -0.0016
 

 ---------------------------------------------------------------------------------

 No NMR shielding tensors so no spin-rotation constants.
 Leave Link  601 at Thu Jan 24 17:08:17 2019, MaxMem=  134217728 cpu:       0.2
 (Enter /home/programs/G09_64/g09/l701.exe)
 Compute integral second derivatives.
 ... and contract with generalized density number  0.
 Leave Link  701 at Thu Jan 24 17:08:17 2019, MaxMem=  134217728 cpu:       0.2
 (Enter /home/programs/G09_64/g09/l702.exe)
 L702 exits ... SP integral derivatives will be done elsewhere.
 Leave Link  702 at Thu Jan 24 17:08:17 2019, MaxMem=  134217728 cpu:       0.0
 (Enter /home/programs/G09_64/g09/l703.exe)
 Compute integral second derivatives, UseDBF=F ICtDFT=           0.
 Integral derivatives from FoFDir, PRISM(SPDF).
 Calling FoFJK, ICntrl=    100147 FMM=F ISym2X=0 I1Cent= 0 IOpClX= 1 NMat=1 NMatS=1 NMatT=0.
 FoFCou: FMM=F IPFlag=           0 FMFlag=      100000 FMFlg1=         800
         NFxFlg=           0 DoJE=F BraDBF=F KetDBF=F FulRan=T
         Omega=  0.000000  0.000000  1.000000  0.000000  0.000000 ICntrl=  100147 IOpCl=  1
         NMat0=    1 NMatS0=    1 NMatT0=    0 NMatD0=    1 NMtDS0=    0 NMtDT0=    0
         I1Cent=           0 NGrid=           0.
 Symmetry not used in FoFCou.
 Leave Link  703 at Thu Jan 24 17:08:18 2019, MaxMem=  134217728 cpu:       0.2
 (Enter /home/programs/G09_64/g09/l716.exe)
 Dipole        = 6.08344071D-01 2.60698792D-01-8.82587334D-04
 Polarizability= 0.00000000D+00 0.00000000D+00 0.00000000D+00
                 0.00000000D+00 0.00000000D+00 0.00000000D+00
 -------------------------------------------------------------------
 Center     Atomic                   Forces (Hartrees/Bohr)
 Number     Number              X              Y              Z
 -------------------------------------------------------------------
      1        6           0.023813719   -0.004568628    0.000455061
      2        6           0.013011358    0.028803328   -0.000636719
      3        8           0.012962677   -0.055363536    0.000035448
      4        1           0.000974069   -0.002149166    0.000049409
      5        1           0.000416024   -0.000357353   -0.000005400
      6        1           0.000284288   -0.000591587   -0.000397016
      7        1          -0.000398210    0.004761642    0.002804490
      8        1          -0.000445370    0.004307123   -0.002297447
      9        1          -0.089538015    0.054098531   -0.000037489
     10        1           0.038919461   -0.028940355    0.000029662
 -------------------------------------------------------------------
 Cartesian Forces:  Max     0.089538015 RMS     0.024615592
 Force constants in Cartesian coordinates: 
                1             2             3             4             5 
      1  0.785734D+00
      2  0.440130D-01  0.835597D+00
      3 -0.433181D-03  0.803161D-03  0.863593D+00
      4 -0.285007D+00  0.997015D-01 -0.151845D-03  0.723441D+00
      5  0.113175D+00 -0.176775D+00  0.496146D-04  0.496132D-01  0.867934D+00
      6 -0.132108D-03  0.182926D-04 -0.120397D+00 -0.142109D-03  0.791891D-03
      7 -0.524628D-01 -0.271466D-01  0.753753D-04 -0.271306D+00 -0.221796D+00
      8  0.628173D-02  0.215065D-01 -0.376104D-04 -0.188701D+00 -0.303429D+00
      9  0.296867D-04 -0.186834D-04  0.351287D-02  0.515470D-03  0.619835D-03
     10 -0.290814D+00 -0.192942D+00  0.656400D-03 -0.268357D-01 -0.288953D-01
     11 -0.193936D+00 -0.246714D+00  0.558065D-03  0.243229D-01  0.193942D-01
     12  0.688166D-03  0.577949D-03 -0.798073D-01 -0.545851D-04 -0.412339D-04
     13 -0.779574D-01  0.137896D-01 -0.224014D-01 -0.194179D-02  0.247331D-01
     14  0.143981D-01 -0.205666D+00  0.179445D+00 -0.568757D-03 -0.112411D-01
     15 -0.229047D-01  0.180226D+00 -0.339657D+00  0.168526D-02 -0.498842D-02
     16 -0.777972D-01  0.139326D-01  0.223128D-01 -0.185117D-02  0.248945D-01
     17  0.145116D-01 -0.208067D+00 -0.180887D+00 -0.649962D-03 -0.112644D-01
     18  0.227606D-01 -0.181663D+00 -0.338312D+00 -0.166654D-02  0.508762D-02
     19 -0.186152D-02  0.247106D-01  0.364105D-01 -0.680861D-01  0.183254D-01
     20  0.205533D-02 -0.877578D-02 -0.162908D-01  0.189969D-01 -0.198033D+00
     21 -0.228235D-02  0.466362D-02  0.537632D-02  0.242402D-01 -0.167493D+00
     22 -0.189765D-02  0.245304D-01 -0.364735D-01 -0.683720D-01  0.183133D-01
     23  0.207977D-02 -0.871881D-02  0.163536D-01  0.189913D-01 -0.196453D+00
     24  0.227080D-02 -0.461196D-02  0.535003D-02 -0.244711D-01  0.165988D+00
     25  0.246905D-02  0.231546D-03  0.471860D-05  0.503805D-02 -0.329207D-02
     26 -0.328684D-02 -0.273069D-02  0.622999D-05 -0.229339D-01  0.115471D-01
     27  0.552355D-05  0.687614D-05  0.790603D-03  0.480586D-04 -0.207507D-04
     28 -0.405034D-03 -0.820759D-03  0.000000D+00 -0.507900D-02  0.492830D-02
     29  0.707941D-03  0.344120D-03  0.000000D+00  0.122838D-02 -0.167971D-02
     30 -0.251555D-05 -0.228992D-05 -0.449257D-03 -0.280110D-05  0.668387D-05
                6             7             8             9            10 
      6  0.844157D+00
      7  0.544879D-03  0.383863D+00
      8  0.545650D-03  0.204643D+00  0.368526D+00
      9 -0.653654D-01 -0.633692D-03 -0.756051D-03  0.261600D-01
     10  0.871186D-04 -0.412195D-02  0.540091D-02 -0.632276D-05  0.303341D+00
     11 -0.633034D-04  0.454226D-02 -0.334688D-02  0.414008D-05  0.202021D+00
     12 -0.682559D-03 -0.821399D-05  0.770841D-05  0.800777D-03 -0.698879D-03
     13 -0.375102D-01  0.325222D-02  0.220205D-03  0.335375D-03  0.696755D-02
     14  0.171022D-01 -0.141355D-02  0.774755D-03 -0.600699D-03  0.787243D-02
     15  0.595876D-02 -0.231888D-03 -0.290377D-03 -0.231124D-04 -0.216599D-02
     16  0.373770D-01  0.326216D-02  0.215215D-03 -0.340121D-03  0.693284D-02
     17 -0.169714D-01 -0.141345D-02  0.780841D-03  0.598841D-03  0.784879D-02
     18  0.601889D-02  0.243019D-03  0.285222D-03 -0.273890D-04  0.212728D-02
     19  0.214707D-01 -0.452802D-02 -0.322274D-01 -0.289100D-01  0.235896D-02
     20 -0.170112D+00 -0.795515D-02 -0.251467D-01 -0.265142D-01 -0.373158D-03
     21 -0.335317D+00 -0.443047D-02 -0.148551D-02  0.996899D-02  0.585063D-04
     22 -0.216813D-01 -0.446600D-02 -0.320470D-01  0.290162D-01  0.235962D-02
     23  0.168686D+00 -0.787318D-02 -0.249821D-01  0.266200D-01 -0.376673D-03
     24 -0.335349D+00  0.450028D-02  0.166759D-02  0.981569D-02 -0.592017D-04
     25 -0.121449D-04  0.378890D-01 -0.675797D-02  0.575039D-05 -0.770058D-04
     26  0.000000D+00 -0.148042D-01 -0.977347D-02  0.394433D-04 -0.613530D-03
     27  0.195031D-03  0.148842D-04  0.395346D-04  0.855374D-02  0.000000D+00
     28 -0.180718D-05 -0.913820D-01  0.429732D-01 -0.123295D-04 -0.111500D-03
     29  0.210547D-05  0.732168D-01 -0.249096D-01  0.731950D-05  0.575802D-04
     30  0.781047D-03 -0.741706D-04  0.238470D-04  0.660377D-02  0.000000D+00
               11            12            13            14            15 
     11  0.250453D+00
     12 -0.598736D-03  0.687706D-01
     13 -0.173253D-01  0.314744D-01  0.745278D-01
     14 -0.109222D-01  0.232286D-01 -0.200097D-01  0.205852D+00
     15 -0.691251D-02  0.510930D-02  0.240736D-01 -0.192884D+00  0.345653D+00
     16 -0.175288D-01 -0.314005D-01 -0.149867D-03 -0.246536D-02 -0.227930D-02
     17 -0.110304D-01 -0.231709D-01 -0.241793D-02  0.204676D-01  0.255065D-01
     18  0.701303D-02  0.522378D-02  0.226378D-02 -0.257231D-01 -0.190534D-01
     19 -0.958092D-03 -0.163008D-03  0.199100D-02 -0.134618D-02 -0.302759D-03
     20  0.751046D-03  0.432226D-03 -0.168022D-02  0.100524D-02 -0.206296D-03
     21  0.222290D-03  0.196021D-03  0.647628D-04  0.133919D-03  0.107335D-02
     22 -0.953456D-03  0.163240D-03 -0.691113D-02  0.354445D-02  0.187255D-02
     23  0.750008D-03 -0.434918D-03  0.272684D-02 -0.222105D-03 -0.402050D-03
     24 -0.222348D-03  0.200792D-03  0.160577D-02 -0.674724D-03  0.913531D-03
     25 -0.438150D-03  0.000000D+00  0.354618D-03 -0.926273D-05  0.327568D-03
     26  0.743166D-03 -0.100157D-05 -0.241734D-04 -0.683092D-04 -0.129552D-03
     27 -0.121817D-05 -0.103139D-03 -0.588542D-04 -0.158704D-04 -0.320142D-04
     28  0.253622D-03  0.000000D+00 -0.133070D-03 -0.213984D-05 -0.743716D-04
     29 -0.772292D-04  0.000000D+00 -0.124317D-04  0.197975D-04  0.809919D-04
     30  0.000000D+00  0.291697D-03  0.152803D-03 -0.111659D-04  0.575339D-04
               16            17            18            19            20 
     16  0.743163D-01
     17 -0.200521D-01  0.208374D+00
     18 -0.238992D-01  0.194348D+00  0.344153D+00
     19 -0.691810D-02  0.352650D-02 -0.188658D-02  0.760981D-01
     20  0.272055D-02 -0.215333D-03  0.402265D-03 -0.108791D-01  0.210157D+00
     21 -0.161469D-02  0.676405D-03  0.906276D-03 -0.218431D-01  0.187132D+00
     22  0.198391D-02 -0.134095D-02  0.311699D-03  0.247370D-02 -0.161354D-02
     23 -0.167975D-02  0.100324D-02  0.200711D-03 -0.166181D-02  0.191803D-01
     24 -0.621603D-04 -0.127969D-03  0.106586D-02 -0.499468D-02  0.240078D-01
     25  0.354228D-03 -0.104441D-04 -0.328837D-03 -0.251453D-02 -0.214560D-02
     26 -0.235020D-04 -0.679673D-04  0.130307D-03  0.122597D-02  0.150982D-02
     27  0.578091D-04  0.160739D-04 -0.320937D-04 -0.723530D-04 -0.291829D-03
     28 -0.133076D-03 -0.201300D-05  0.747472D-04  0.986522D-03  0.874044D-03
     29 -0.132831D-04  0.194610D-04 -0.812264D-04 -0.715824D-03 -0.433040D-03
     30 -0.151654D-03  0.112718D-04  0.574359D-04  0.291227D-03  0.144076D-02
               21            22            23            24            25 
     21  0.337274D+00
     22  0.496508D-02  0.763507D-01
     23 -0.241174D-01 -0.109396D-01  0.208377D+00
     24 -0.197297D-01  0.220432D-01 -0.185757D+00  0.337474D+00
     25  0.633656D-03 -0.250408D-02 -0.213530D-02 -0.620276D-03  0.141718D-01
     26  0.387033D-04  0.122152D-02  0.150276D-02 -0.433368D-04  0.135577D-01
     27  0.276526D-03  0.675293D-04  0.288272D-03  0.275339D-03 -0.244100D-04
     28  0.208414D-03  0.982946D-03  0.868399D-03 -0.212642D-03 -0.551811D-01
     29  0.228898D-03 -0.715155D-03 -0.437178D-03 -0.226186D-03  0.999516D-03
     30 -0.247053D-04 -0.284705D-03 -0.143775D-02 -0.170723D-04  0.145597D-04
               26            27            28            29            30 
     26  0.689419D-01
     27 -0.585901D-04  0.391998D-01
     28  0.256809D-01 -0.391663D-04  0.150455D+00
     29 -0.716043D-01  0.375012D-04 -0.747536D-01  0.987577D-01
     30  0.173904D-04 -0.491238D-01  0.571449D-04 -0.493412D-04  0.418233D-01
 Force constants in internal coordinates: 
                1             2             3             4             5 
      1  0.451927D+00
      2 -0.132554D-02  0.480643D+00
      3 -0.626888D-03 -0.477068D-02  0.483290D+00
      4 -0.656652D-03 -0.476439D-02 -0.468864D-02  0.484481D+00
      5  0.211148D-01 -0.106023D-02 -0.306583D-03 -0.305381D-03  0.592174D+00
      6 -0.456161D-03  0.205846D-03  0.100393D-03 -0.945174D-03  0.146927D-01
      7 -0.433376D-03  0.205056D-03 -0.948839D-03  0.996523D-04  0.146941D-01
      8 -0.300787D-02  0.245188D-03 -0.212449D-03 -0.212855D-03 -0.280703D-02
      9  0.616060D-03 -0.718936D-04  0.879514D-04  0.880634D-04 -0.194686D-02
     10  0.184157D-01  0.179348D-02 -0.478130D-02 -0.478987D-02  0.247447D-02
     11  0.172736D-01 -0.482940D-02  0.157193D-02 -0.465426D-02 -0.344709D-02
     12  0.171601D-01 -0.484598D-02 -0.466054D-02  0.156121D-02 -0.345634D-02
     13 -0.180570D-01  0.409354D-02  0.404021D-02 -0.303539D-03  0.106918D-02
     14 -0.180470D-01  0.410971D-02 -0.299264D-03  0.405527D-02  0.107054D-02
     15 -0.180467D-01 -0.458959D-04  0.428299D-02  0.428059D-02  0.241830D-02
     16  0.230279D-01  0.371424D-02 -0.235905D-02 -0.235769D-02  0.251372D-02
     17  0.993254D-02 -0.179757D-02 -0.113203D-02  0.248243D-02 -0.188488D-01
     18  0.991460D-02 -0.180355D-02  0.248811D-02 -0.112476D-02 -0.188313D-01
     19 -0.160297D-01 -0.426608D-03  0.860577D-03  0.268461D-03  0.185059D-01
     20 -0.160355D-01 -0.425039D-03  0.267318D-03  0.859890D-03  0.184436D-01
     21 -0.942840D-02  0.700156D-03 -0.137191D-03 -0.138947D-03 -0.267292D-02
     22  0.122376D-02  0.164405D-03 -0.216191D-03 -0.217314D-03  0.227193D-01
     23 -0.262434D-03 -0.696403D-04 -0.330129D-05 -0.359966D-05  0.102289D-03
     24 -0.163518D-05  0.353615D-05 -0.275845D-02  0.275648D-02 -0.232741D-04
     25 -0.357388D-03  0.690826D-03 -0.371457D-02  0.303834D-02  0.133548D-01
     26  0.358054D-03 -0.683152D-03 -0.304145D-02  0.371026D-02 -0.133321D-01
     27  0.198624D-04  0.320057D-02  0.179495D-03 -0.351685D-02  0.727000D-03
     28 -0.335890D-03  0.388786D-02 -0.776624D-03 -0.323499D-02  0.141051D-01
     29  0.379551D-03  0.251388D-02 -0.103504D-03 -0.256307D-02 -0.125818D-01
     30 -0.478407D-05 -0.320576D-02  0.352395D-02 -0.184103D-03 -0.771834D-03
     31 -0.360537D-03 -0.251847D-02  0.256783D-02  0.977543D-04  0.126063D-01
     32  0.354905D-03 -0.389245D-02  0.324095D-02  0.769674D-03 -0.140807D-01
     33  0.136526D-05  0.138954D-05 -0.141042D-02  0.140640D-02 -0.352982D-05
     34 -0.171437D-01  0.151508D-03  0.907413D-03 -0.299906D-03  0.110995D-01
     35  0.171419D-01 -0.152238D-03  0.300225D-03 -0.904909D-03 -0.111145D-01
     36  0.000000D+00  0.000000D+00 -0.176409D-04  0.175348D-04 -0.133957D-05
                6             7             8             9            10 
      6  0.472806D+00
      7 -0.355844D-02  0.471071D+00
      8  0.322163D-03  0.318130D-03  0.759122D-01
      9 -0.507324D-03 -0.506037D-03  0.132611D+00  0.203680D+00
     10 -0.101886D-02 -0.102142D-02 -0.485811D-03  0.352025D-03  0.145746D+00
     11 -0.227969D-02  0.207106D-02 -0.740219D-04  0.138052D-04 -0.245901D-01
     12  0.206270D-02 -0.227360D-02 -0.723742D-04  0.126905D-04 -0.246957D-01
     13  0.872819D-03  0.160009D-04  0.327451D-03 -0.197220D-03 -0.569892D-01
     14  0.185513D-04  0.872522D-03  0.328411D-03 -0.197528D-03 -0.570862D-01
     15  0.370668D-03  0.361454D-03 -0.686464D-05  0.665553D-05  0.154377D-01
     16 -0.340394D-02 -0.341032D-02 -0.540866D-02  0.337252D-02  0.265759D-01
     17  0.111227D-02 -0.466899D-02  0.370060D-03  0.339532D-04 -0.104508D-01
     18 -0.465461D-02  0.112384D-02  0.372683D-03  0.331092D-04 -0.104505D-01
     19  0.317613D-02  0.927115D-04  0.289276D-02 -0.191107D-02 -0.547443D-02
     20  0.925137D-04  0.317137D-02  0.288321D-02 -0.190821D-02 -0.547827D-02
     21  0.339157D-02  0.340155D-02 -0.117282D-02  0.443025D-03  0.513324D-02
     22 -0.231760D-02 -0.231103D-02 -0.208636D-01  0.121949D-01  0.295239D-02
     23 -0.556901D-03 -0.556742D-03  0.223576D-03  0.266036D-02  0.110147D-03
     24 -0.175591D-02  0.175549D-02 -0.321667D-05  0.115256D-05  0.130123D-04
     25  0.644444D-03 -0.262805D-02  0.494014D-03 -0.294463D-03  0.334121D-02
     26  0.262052D-02 -0.641400D-03 -0.488742D-03  0.292615D-03 -0.331683D-02
     27 -0.273098D-02  0.241049D-02  0.483935D-04 -0.114494D-04  0.649252D-02
     28 -0.330623D-03 -0.197305D-02  0.545624D-03 -0.307065D-03  0.982072D-02
     29  0.164546D-02  0.135990D-04 -0.437132D-03  0.280013D-03  0.316267D-02
     30 -0.241079D-02  0.273265D-02 -0.562739D-04  0.142791D-04 -0.649857D-02
     31 -0.104359D-04 -0.165090D-02  0.440957D-03 -0.281336D-03 -0.317037D-02
     32  0.196564D-02  0.335757D-03 -0.541799D-03  0.305741D-03 -0.982842D-02
     33  0.180220D-02 -0.180972D-02  0.306425D-05 -0.223920D-05 -0.574817D-05
     34  0.797528D-03  0.581030D-02  0.125414D-02 -0.104230D-02 -0.516187D-03
     35 -0.580309D-02 -0.798563D-03 -0.125386D-02  0.104082D-02  0.522959D-03
     36 -0.215443D-03  0.215369D-03  0.185809D-05 -0.136256D-05  0.000000D+00
               11            12            13            14            15 
     11  0.148788D+00
     12 -0.287432D-01  0.148686D+00
     13 -0.563565D-01  0.163017D-01  0.718214D-01
     14  0.162505D-01 -0.563188D-01  0.137545D-01  0.719168D-01
     15 -0.578120D-01 -0.576605D-01  0.139785D-01  0.139599D-01  0.743592D-01
     16 -0.123166D-01 -0.123509D-01 -0.481079D-02 -0.481616D-02  0.776043D-02
     17 -0.728785D-02  0.202490D-01  0.509137D-02 -0.314591D-02 -0.455520D-02
     18  0.202488D-01 -0.726591D-02 -0.314868D-02  0.509246D-02 -0.457785D-02
     19  0.592628D-02 -0.292794D-02  0.397702D-03  0.269484D-02 -0.572680D-03
     20 -0.294399D-02  0.593618D-02  0.269623D-02  0.398948D-03 -0.564853D-03
     21 -0.343941D-02 -0.344263D-02 -0.270580D-03 -0.272141D-03  0.235593D-02
     22 -0.469024D-03 -0.470237D-03 -0.103055D-02 -0.103190D-02  0.802332D-05
     23  0.155744D-03  0.155866D-03 -0.146209D-03 -0.146248D-03 -0.140061D-03
     24 -0.484187D-02  0.481472D-02 -0.961728D-02  0.960759D-02  0.148071D-04
     25 -0.886679D-02  0.502158D-02 -0.920695D-02  0.832424D-02  0.140079D-02
     26 -0.505354D-02  0.884446D-02 -0.833386D-02  0.919785D-02 -0.136952D-02
     27  0.206710D-02 -0.842306D-02  0.818862D-02  0.591791D-03 -0.872556D-02
     28 -0.195782D-02 -0.821620D-02  0.859894D-02 -0.691559D-03 -0.733958D-02
     29  0.185542D-02 -0.439332D-02  0.947204D-02  0.182052D-03 -0.101099D-01
     30  0.846038D-02 -0.207193D-02 -0.607996D-03 -0.816945D-02  0.870426D-02
     31  0.443547D-02 -0.186507D-02 -0.197667D-03 -0.945280D-02  0.100902D-01
     32  0.824871D-02  0.195781D-02  0.675425D-03 -0.857919D-02  0.731993D-02
     33 -0.960853D-02  0.960618D-02  0.305772D-02 -0.305472D-02  0.602528D-05
     34  0.337145D-02 -0.568985D-02 -0.373868D-03  0.217211D-02  0.110773D-02
     35  0.569487D-02 -0.337647D-02 -0.217369D-02  0.373388D-03 -0.111299D-02
     36 -0.454289D-04  0.451788D-04  0.458615D-04 -0.456981D-04  0.000000D+00
               16            17            18            19            20 
     16  0.178829D+00
     17 -0.430386D-01  0.948900D-01
     18 -0.431216D-01 -0.150611D-01  0.949032D-01
     19 -0.614711D-01 -0.307965D-01  0.250979D-01  0.697231D-01
     20 -0.614765D-01  0.250860D-01 -0.307838D-01  0.404414D-02  0.697311D-01
     21  0.309225D-01 -0.288749D-01 -0.288699D-01 -0.788730D-02 -0.787897D-02
     22  0.949542D-02 -0.252152D-02 -0.252225D-02 -0.265947D-02 -0.266261D-02
     23  0.112901D-03  0.236349D-04  0.235553D-04 -0.488359D-04 -0.490644D-04
     24  0.324633D-05  0.473856D-02 -0.473797D-02 -0.169657D-01  0.169567D-01
     25  0.771791D-02 -0.599753D-02 -0.802986D-02  0.137667D-01 -0.520956D-03
     26 -0.770946D-02  0.801921D-02  0.600198D-02  0.517864D-03 -0.137593D-01
     27  0.322870D-02 -0.797204D-04 -0.270390D-02 -0.162676D-01  0.150062D-01
     28  0.109434D-01 -0.108158D-01 -0.599580D-02  0.144648D-01 -0.247142D-02
     29 -0.448401D-02  0.320094D-02  0.803604D-02  0.121597D-02 -0.157098D-01
     30 -0.323081D-02  0.270294D-02  0.902243D-04 -0.150138D-01  0.162575D-01
     31  0.448385D-02 -0.803315D-02 -0.320167D-02  0.157186D-01 -0.122011D-02
     32 -0.109435D-01  0.598359D-02  0.108302D-01  0.246976D-02 -0.144585D-01
     33 -0.538288D-05  0.343510D-01 -0.343378D-01 -0.114950D-01  0.115083D-01
     34 -0.228776D-01 -0.370256D-01 -0.381770D-02  0.248148D-01  0.162687D-01
     35  0.228965D-01  0.383550D-02  0.369957D-01 -0.162891D-01 -0.248230D-01
     36  0.135614D-05  0.218580D-04 -0.215512D-04 -0.252724D-03  0.250931D-03
               21            22            23            24            25 
     21  0.403526D-01
     22  0.915983D-03  0.131115D+00
     23 -0.564537D-04  0.108051D-01  0.406704D-01
     24  0.390312D-05  0.000000D+00  0.000000D+00  0.218519D-01
     25 -0.691441D-02  0.100327D-02  0.202706D-04  0.419006D-02  0.218579D-01
     26  0.691179D-02 -0.100075D-02 -0.199323D-04  0.419521D-02  0.463528D-02
     27  0.784096D-03  0.302569D-03 -0.145637D-04  0.700446D-02 -0.105381D-01
     28 -0.613422D-02  0.130533D-02  0.566743D-05 -0.106574D-01  0.712970D-02
     29  0.769199D-02 -0.698695D-03 -0.345354D-04 -0.106522D-01 -0.100929D-01
     30 -0.778885D-03 -0.303701D-03  0.143588D-04  0.700072D-02 -0.113120D-01
     31 -0.769720D-02  0.699063D-03  0.345899D-04 -0.106611D-01  0.635581D-02
     32  0.612901D-02 -0.130496D-02 -0.561294D-05 -0.106560D-01 -0.108668D-01
     33 -0.744293D-05 -0.232820D-05  0.000000D+00 -0.179210D-02  0.297280D-02
     34  0.203119D-01 -0.126060D-02 -0.705026D-04  0.171031D-02 -0.194194D-02
     35 -0.203034D-01  0.126068D-02  0.695225D-04  0.171893D-02 -0.229918D-02
     36  0.000000D+00  0.000000D+00 -0.462731D-05  0.166070D-03 -0.122450D-03
               26            27            28            29            30 
     26  0.218508D-01
     27 -0.113012D-01  0.224802D-01
     28 -0.108611D-01  0.493763D-02  0.227247D-01
     29  0.635442D-02  0.417458D-02  0.473386D-02  0.211812D-01
     30 -0.105367D-01  0.737793D-02 -0.109348D-01 -0.101594D-01  0.224846D-01
     31 -0.100966D-01 -0.101647D-01  0.685224D-02 -0.960016D-02  0.417188D-02
     32  0.711895D-02 -0.109277D-01 -0.111386D-01  0.684719D-02  0.494725D-02
     33  0.297162D-02 -0.396159D-02  0.803322D-03  0.802137D-03 -0.396451D-02
     34 -0.229470D-02  0.300682D-02 -0.645436D-03 -0.998196D-03  0.287816D-02
     35 -0.194326D-02  0.288681D-02 -0.113130D-02 -0.775386D-03  0.301730D-02
     36 -0.122107D-03  0.194592D-03 -0.939290D-04 -0.935854D-04  0.194498D-03
               31            32            33            34            35 
     31  0.211888D-01
     32  0.473639D-02  0.227222D-01
     33  0.800396D-03  0.799211D-03  0.245314D-01
     34 -0.774097D-03 -0.112686D-02 -0.105203D-01  0.343349D-01
     35 -0.100080D-02 -0.644889D-03 -0.105150D-01 -0.201118D-01  0.343401D-01
     36 -0.940231D-04 -0.936795D-04  0.145053D-03  0.255005D-03  0.256199D-03
               36 
     36  0.755279D-03
 Leave Link  716 at Thu Jan 24 17:08:18 2019, MaxMem=  134217728 cpu:       0.0
 (Enter /home/programs/G09_64/g09/l103.exe)

 GradGradGradGradGradGradGradGradGradGradGradGradGradGradGradGradGradGrad
 Berny optimization.
 Red2BG is reusing G-inverse.
 Internal  Forces:  Max     0.056525758 RMS     0.015546906
 Search for a saddle point.
 Step number   1 out of a maximum of   46
 All quantities printed in internal units (Hartrees-Bohrs-Radians)
 Swaping is turned off.
 Second derivative matrix not updated -- analytic derivatives used.
 ITU=  0
     Eigenvalues ---   -0.01174   0.00071   0.00234   0.00358   0.03940
     Eigenvalues ---    0.06650   0.06757   0.07316   0.08373   0.13282
     Eigenvalues ---    0.13718   0.16140   0.18720   0.18929   0.23194
     Eigenvalues ---    0.27705   0.28698   0.45978   0.46914   0.47484
     Eigenvalues ---    0.47598   0.48725   0.48917   0.60456
 Eigenvectors required to have negative eigenvalues:
                          R8        R9        A13       A10       A11
   1                    0.83460  -0.52374   0.16647  -0.01569  -0.01560
                          A7        A14       D5        D9        A12
   1                    0.01551  -0.01134  -0.00955   0.00947   0.00905
 RFO step:  Lambda0=6.723389354D-02 Lambda=-7.36372555D-03.
 Linear search not attempted -- option 19 set.
 Maximum step size (   0.300) exceeded in Quadratic search.
    -- Step size scaled by   0.321
 Iteration  1 RMS(Cart)=  0.05253031 RMS(Int)=  0.00926411
 Iteration  2 RMS(Cart)=  0.01096978 RMS(Int)=  0.00002105
 Iteration  3 RMS(Cart)=  0.00003166 RMS(Int)=  0.00000520
 Iteration  4 RMS(Cart)=  0.00000000 RMS(Int)=  0.00000520
 Variable       Old X    -DE/DX   Delta X   Delta X   Delta X     New X
                                 (Linear)    (Quad)   (Total)
    R1        2.86401   0.02597   0.00000   0.01469   0.01469   2.87870
    R2        2.05279  -0.00069   0.00000  -0.00034  -0.00034   2.05245
    R3        2.05113   0.00023   0.00000   0.00012   0.00012   2.05125
    R4        2.05018   0.00069   0.00000   0.00042   0.00042   2.05060
    R5        2.63961   0.04800   0.00000   0.02643   0.02643   2.66604
    R6        2.06078   0.00506   0.00000   0.00275   0.00275   2.06353
    R7        2.06221   0.00438   0.00000   0.00231   0.00231   2.06451
    R8        2.37337   0.05653   0.00000  -0.24856  -0.24856   2.12481
    R9        1.61739  -0.04850   0.00000   0.14190   0.14190   1.75929
    A1        1.90866   0.00324   0.00000   0.00355   0.00355   1.91221
    A2        1.92859   0.00006   0.00000  -0.00090  -0.00091   1.92769
    A3        1.93002  -0.00023   0.00000  -0.00134  -0.00134   1.92868
    A4        1.89865  -0.00142   0.00000   0.00013   0.00013   1.89878
    A5        1.89820  -0.00130   0.00000   0.00028   0.00028   1.89848
    A6        1.89918  -0.00043   0.00000  -0.00171  -0.00172   1.89746
    A7        1.84708   0.00867   0.00000   0.00512   0.00511   1.85219
    A8        1.91714  -0.00147   0.00000  -0.00134  -0.00135   1.91579
    A9        1.91713  -0.00141   0.00000  -0.00133  -0.00135   1.91578
   A10        1.94102  -0.00237   0.00000   0.00316   0.00316   1.94418
   A11        1.94170  -0.00247   0.00000   0.00291   0.00291   1.94461
   A12        1.89939  -0.00081   0.00000  -0.00821  -0.00822   1.89117
   A13        1.89681   0.00091   0.00000  -0.08106  -0.08106   1.81575
   A14        2.97372   0.00066   0.00000   0.02121   0.02121   2.99493
    D1        3.14110  -0.00003   0.00000   0.00000   0.00000   3.14110
    D2       -1.04519   0.00140   0.00000   0.00603   0.00603  -1.03917
    D3        1.04341  -0.00138   0.00000  -0.00573  -0.00573   1.03768
    D4       -1.05260   0.00030   0.00000   0.00185   0.00185  -1.05075
    D5        1.04429   0.00173   0.00000   0.00788   0.00787   1.05216
    D6        3.13290  -0.00105   0.00000  -0.00389  -0.00388   3.12901
    D7        1.05129  -0.00034   0.00000  -0.00177  -0.00177   1.04952
    D8       -3.13501   0.00109   0.00000   0.00426   0.00425  -3.13076
    D9       -1.04640  -0.00169   0.00000  -0.00751  -0.00750  -1.05390
   D10        3.14141  -0.00001   0.00000   0.00032   0.00032  -3.14145
   D11        1.06021  -0.00219   0.00000  -0.00287  -0.00288   1.05732
   D12       -1.06021   0.00220   0.00000   0.00340   0.00341  -1.05680
   D13        0.00003   0.00000   0.00000   0.00062   0.00062   0.00065
         Item               Value     Threshold  Converged?
 Maximum Force            0.056526     0.000450     NO 
 RMS     Force            0.015547     0.000300     NO 
 Maximum Displacement     0.229386     0.001800     NO 
 RMS     Displacement     0.058912     0.001200     NO 
 Predicted change in Energy= 1.905262D-02
 GradGradGradGradGradGradGradGradGradGradGradGradGradGradGradGradGradGrad

 Leave Link  103 at Thu Jan 24 17:08:18 2019, MaxMem=  134217728 cpu:       0.0
 (Enter /home/programs/G09_64/g09/l202.exe)
                          Input orientation:                          
 ---------------------------------------------------------------------
 Center     Atomic      Atomic             Coordinates (Angstroms)
 Number     Number       Type             X           Y           Z
 ---------------------------------------------------------------------
      1          6           0        1.306887   -0.174968   -0.000466
      2          6           0       -0.032375    0.550951   -0.001012
      3          8           0       -1.022660   -0.453893    0.001792
      4          1           0        2.114283    0.551487   -0.003061
      5          1           0        1.400082   -0.798171    0.883381
      6          1           0        1.399242   -0.802919   -0.880611
      7          1           0       -0.107952    1.187144    0.883266
      8          1           0       -0.109045    1.184154   -0.887982
      9          1           0       -1.991007    0.117581    0.001141
     10          1           0       -2.715019    0.702833    0.000220
 ---------------------------------------------------------------------
                    Distance matrix (angstroms):
                    1          2          3          4          5
     1  C    0.000000
     2  C    1.523345   0.000000
     3  O    2.346187   1.410810   0.000000
     4  H    1.086109   2.146659   3.294120   0.000000
     5  H    1.085474   2.157363   2.601040   1.765627   0.000000
     6  H    1.085131   2.157820   2.601167   1.765161   1.763999
     7  H    2.153625   1.091972   2.075257   2.475473   2.493119
     8  H    2.154011   1.092493   2.075955   2.475186   3.056928
     9  H    3.310845   2.006005   1.124401   4.128160   3.621662
    10  H    4.116584   2.686941   2.049902   4.831675   4.468450
                    6          7          8          9         10
     6  H    0.000000
     7  H    3.056674   0.000000
     8  H    2.494684   1.771251   0.000000
     9  H    3.621961   2.338377   2.338781   0.000000
    10  H    4.468815   2.794840   2.794937   0.930975   0.000000
 Symmetry turned off by external request.
 Stoichiometry    C2H7O(2)
 Framework group  C1[X(C2H7O)]
 Deg. of freedom    24
 Full point group                 C1      NOp   1
 Rotational constants (GHZ):     32.8803277      8.3835042      7.2868558
 Leave Link  202 at Thu Jan 24 17:08:18 2019, MaxMem=  134217728 cpu:       0.0
 (Enter /home/programs/G09_64/g09/l301.exe)
 Standard basis: STO-3G (5D, 7F)
 Ernie: Thresh=  0.10000D-02 Tol=  0.10000D-05 Strict=F.
 Integral buffers will be    131072 words long.
 Raffenetti 2 integral format.
 Two-electron integral symmetry is turned off.
    22 basis functions,    66 primitive gaussians,    22 cartesian basis functions
    14 alpha electrons       13 beta electrons
       nuclear repulsion energy        86.8021366376 Hartrees.
 IExCor=    0 DFT=F Ex=HF Corr=None ExCW=0 ScaHFX=  1.000000
 ScaDFX=  1.000000  1.000000  1.000000  1.000000 ScalE2=  1.000000  1.000000
 IRadAn=      0 IRanWt=     -1 IRanGd=            0 ICorTp=0
 NAtoms=   10 NActive=   10 NUniq=   10 SFac= 1.00D+00 NAtFMM=   50 NAOKFM=F Big=F
 Leave Link  301 at Thu Jan 24 17:08:18 2019, MaxMem=  134217728 cpu:       0.1
 (Enter /home/programs/G09_64/g09/l302.exe)
 NPDir=0 NMtPBC=     1 NCelOv=     1 NCel=       1 NClECP=     1 NCelD=      1
         NCelK=      1 NCelE2=     1 NClLst=     1 CellRange=     0.0.
 One-electron integrals computed using PRISM.
 NBasis=    22 RedAO= T  NBF=    22
 NBsUse=    22 1.00D-06 NBFU=    22
 Leave Link  302 at Thu Jan 24 17:08:18 2019, MaxMem=  134217728 cpu:       0.1
 (Enter /home/programs/G09_64/g09/l303.exe)
 DipDrv:  MaxL=1.
 Leave Link  303 at Thu Jan 24 17:08:18 2019, MaxMem=  134217728 cpu:       0.0
 (Enter /home/programs/G09_64/g09/l401.exe)
 Initial guess read from the read-write file.
 B after Tr=     0.000000    0.000000    0.000000
         Rot=    1.000000    0.000000    0.000000    0.000000 Ang=   0.00 deg.
 Guess basis will be translated and rotated to current coordinates.
 Initial guess <Sx>= 0.0000 <Sy>= 0.0000 <Sz>= 0.5000 <S**2>= 0.7768 S= 0.5133
 Generating alternative initial guess.
 Harris functional with IExCor=  205 diagonalized for initial guess.
 ExpMin= 1.69D-01 ExpMax= 1.31D+02 ExpMxC= 1.31D+02 IAcc=1 IRadAn=         1 AccDes= 0.00D+00
 HarFok:  IExCor=  205 AccDes= 0.00D+00 IRadAn=         1 IDoV= 1
 ScaDFX=  1.000000  1.000000  1.000000  1.000000
 FoFCou: FMM=F IPFlag=           0 FMFlag=      100000 FMFlg1=           0
         NFxFlg=           0 DoJE=T BraDBF=F KetDBF=T FulRan=T
         Omega=  0.000000  0.000000  1.000000  0.000000  0.000000 ICntrl=     500 IOpCl=  0
         NMat0=    1 NMatS0=    1 NMatT0=    0 NMatD0=    1 NMtDS0=    0 NMtDT0=    0
         I1Cent=           4 NGrid=           0.
 Symmetry not used in FoFCou.
 Harris En= -152.795709662551    
 Leave Link  401 at Thu Jan 24 17:08:18 2019, MaxMem=  134217728 cpu:       0.3
 (Enter /home/programs/G09_64/g09/l502.exe)
 UHF open shell SCF:
 Requested convergence on RMS density matrix=1.00D-08 within 128 cycles.
 Requested convergence on MAX density matrix=1.00D-06.
 Requested convergence on             energy=1.00D-06.
 No special actions if energy rises.
 Using DIIS extrapolation, IDIIS=  1040.
 Two-electron integral symmetry not used.
 Keep R1 and R2 ints in memory in canonical form, NReq=884165.
 IEnd=       19882 IEndB=       19882 NGot=   134217728 MDV=   134150703
 LenX=   134150703 LenY=   134149778
 Symmetry not used in FoFDir.
 MinBra= 0 MaxBra= 1 Meth= 1.
 IRaf=       0 NMat=   1 IRICut=       1 DoRegI=T DoRafI=F ISym2E= 0 JSym2E=0.

 Cycle   1  Pass 1  IDiag  1:
 E= -152.579381271737    
 DIIS: error= 1.19D-02 at cycle   1 NSaved=   1.
 NSaved= 1 IEnMin= 1 EnMin= -152.579381271737     IErMin= 1 ErrMin= 1.19D-02
 ErrMax= 1.19D-02 EMaxC= 1.00D-01 BMatC= 7.81D-03 BMatP= 7.81D-03
 IDIUse=3 WtCom= 8.81D-01 WtEn= 1.19D-01
 Coeff-Com:  0.100D+01
 Coeff-En:   0.100D+01
 Coeff:      0.100D+01
 Recover alternate guess density for next cycle.
 RMSDP=2.18D-02 MaxDP=1.83D-01              OVMax= 0.00D+00

 Cycle   2  Pass 1  IDiag  1:
 E= -152.496021709760     Delta-E=        0.083359561976 Rises=F Damp=F
 Switch densities from cycles 1 and 2 for lowest energy.
 DIIS: error= 4.52D-02 at cycle   2 NSaved=   2.
 NSaved= 2 IEnMin= 1 EnMin= -152.579381271737     IErMin= 1 ErrMin= 1.19D-02
[...]
     31 -0.806054D-02  0.441961D-03 -0.302346D-04 -0.103325D-01  0.601952D-02
     32  0.640655D-02 -0.186415D-02  0.913494D-04 -0.103332D-01 -0.107896D-01
     33  0.000000D+00 -0.874668D-05  0.000000D+00 -0.295229D-02  0.367561D-02
     34  0.202085D-01 -0.565913D-02  0.810615D-04  0.959910D-03 -0.160214D-02
     35 -0.202101D-01  0.564120D-02 -0.811823D-04  0.958808D-03 -0.192930D-02
     36  0.000000D+00 -0.166357D-05  0.190015D-05 -0.104249D-04  0.390974D-05
               26            27            28            29            30 
     26  0.215846D-01
     27 -0.111842D-01  0.218835D-01
     28 -0.107895D-01  0.512546D-02  0.222795D-01
     29  0.601923D-02  0.432282D-02  0.466849D-02  0.206754D-01
     30 -0.103817D-01  0.689119D-02 -0.106688D-01 -0.986714D-02  0.218834D-01
     31 -0.998713D-02 -0.986680D-02  0.648518D-02 -0.952147D-02  0.432339D-02
     32  0.682166D-02 -0.106694D-01 -0.111258D-01  0.648545D-02  0.512509D-02
     33  0.367739D-02 -0.524837D-02  0.137952D-02  0.138130D-02 -0.524776D-02
     34 -0.192839D-02  0.221663D-02 -0.345423D-03 -0.671669D-03  0.220513D-02
     35 -0.160131D-02  0.220371D-02 -0.684391D-03 -0.356408D-03  0.221564D-02
     36  0.391048D-05 -0.956311D-05  0.477148D-05  0.477222D-05 -0.956416D-05
               31            32            33            34            35 
     31  0.206754D-01
     32  0.466872D-02  0.222800D-01
     33  0.138013D-02  0.138191D-02  0.242424D-01
     34 -0.356920D-03 -0.683166D-03 -0.963786D-02  0.343697D-01
     35 -0.672468D-03 -0.344485D-03 -0.964074D-02 -0.199845D-01  0.343677D-01
     36  0.477044D-05  0.477118D-05  0.133855D-04  0.294084D-04  0.293721D-04
               36 
     36  0.178528D-03
 Leave Link  716 at Thu Jan 24 17:08:50 2019, MaxMem=  134217728 cpu:       0.1
 (Enter /home/programs/G09_64/g09/l103.exe)

 GradGradGradGradGradGradGradGradGradGradGradGradGradGradGradGradGradGrad
 Berny optimization.
 Red2BG is reusing G-inverse.
 Internal  Forces:  Max     0.000044753 RMS     0.000012729
 Search for a saddle point.
 Step number   1 out of a maximum of    2
 All quantities printed in internal units (Hartrees-Bohrs-Radians)
 Swaping is turned off.
 Second derivative matrix not updated -- analytic derivatives used.
 ITU=  0
     Eigenvalues ---   -0.09569   0.00018   0.00202   0.00480   0.02768
     Eigenvalues ---    0.06577   0.06647   0.07247   0.07961   0.13999
     Eigenvalues ---    0.16033   0.17977   0.18446   0.22745   0.24316
     Eigenvalues ---    0.29875   0.33800   0.41398   0.45261   0.46194
     Eigenvalues ---    0.47340   0.48759   0.48780   0.53074
 Eigenvectors required to have negative eigenvalues:
                          R9        R8        A14       R5        A7
   1                   -0.89724   0.43863  -0.02894   0.02267  -0.01691
                          D9        D5        D3        D2        A1
   1                    0.01167  -0.01166   0.00937  -0.00937  -0.00799
 Angle between quadratic step and forces=  79.79 degrees.
 Linear search not attempted -- option 19 set.
 Iteration  1 RMS(Cart)=  0.00039498 RMS(Int)=  0.00000185
 Iteration  2 RMS(Cart)=  0.00000033 RMS(Int)=  0.00000000
 Variable       Old X    -DE/DX   Delta X   Delta X   Delta X     New X
                                 (Linear)    (Quad)   (Total)
    R1        2.91516   0.00002   0.00000   0.00005   0.00005   2.91521
    R2        2.05178   0.00000   0.00000   0.00000   0.00000   2.05179
    R3        2.05162   0.00000   0.00000   0.00000   0.00000   2.05162
    R4        2.05161   0.00000   0.00000   0.00000   0.00000   2.05162
    R5        2.71855   0.00004   0.00000   0.00012   0.00012   2.71867
    R6        2.07239   0.00000   0.00000   0.00000   0.00000   2.07238
    R7        2.07238   0.00000   0.00000   0.00000   0.00000   2.07238
    R8        2.01501  -0.00004   0.00000   0.00004   0.00004   2.01506
    R9        2.07893   0.00001   0.00000  -0.00029  -0.00029   2.07864
    A1        1.92113   0.00000   0.00000  -0.00003  -0.00003   1.92110
    A2        1.92574   0.00000   0.00000   0.00001   0.00001   1.92576
    A3        1.92575   0.00000   0.00000   0.00001   0.00001   1.92576
    A4        1.89800   0.00000   0.00000  -0.00003  -0.00003   1.89797
    A5        1.89800   0.00000   0.00000  -0.00003  -0.00003   1.89797
    A6        1.89460   0.00000   0.00000   0.00006   0.00006   1.89467
    A7        1.88488   0.00000   0.00000  -0.00003  -0.00003   1.88486
    A8        1.91123   0.00000   0.00000   0.00001   0.00001   1.91124
    A9        1.91121   0.00000   0.00000   0.00003   0.00003   1.91124
   A10        1.94061  -0.00001   0.00000  -0.00011  -0.00011   1.94050
   A11        1.94057  -0.00001   0.00000  -0.00007  -0.00007   1.94050
   A12        1.87531   0.00001   0.00000   0.00016   0.00016   1.87548
   A13        1.81512  -0.00001   0.00000  -0.00004  -0.00004   1.81508
   A14        3.05367  -0.00002   0.00000  -0.00069  -0.00069   3.05297
    D1       -3.14125   0.00000   0.00000  -0.00034  -0.00034  -3.14159
    D2       -1.02567  -0.00001   0.00000  -0.00048  -0.00048  -1.02615
    D3        1.02641   0.00001   0.00000  -0.00026  -0.00026   1.02615
    D4       -1.04644   0.00000   0.00000  -0.00039  -0.00039  -1.04682
    D5        1.06914  -0.00001   0.00000  -0.00052  -0.00052   1.06862
    D6        3.12122   0.00000   0.00000  -0.00030  -0.00030   3.12092
    D7        1.04711   0.00000   0.00000  -0.00029  -0.00029   1.04682
    D8       -3.12049  -0.00001   0.00000  -0.00043  -0.00043  -3.12092
    D9       -1.06841   0.00001   0.00000  -0.00021  -0.00021  -1.06862
   D10       -3.14080   0.00000   0.00000  -0.00079  -0.00079  -3.14159
   D11        1.04516   0.00000   0.00000  -0.00072  -0.00072   1.04444
   D12       -1.04363   0.00000   0.00000  -0.00081  -0.00081  -1.04444
   D13       -0.00167   0.00000   0.00000   0.00168   0.00168   0.00001
         Item               Value     Threshold  Converged?
 Maximum Force            0.000045     0.000450     YES
 RMS     Force            0.000013     0.000300     YES
 Maximum Displacement     0.001136     0.001800     YES
 RMS     Displacement     0.000395     0.001200     YES
 Predicted change in Energy=-1.722883D-08
 Optimization completed.
    -- Stationary point found.
                           ----------------------------
                           !   Optimized Parameters   !
                           ! (Angstroms and Degrees)  !
 --------------------------                            --------------------------
 ! Name  Definition              Value          Derivative Info.                !
 --------------------------------------------------------------------------------
 ! R1    R(1,2)                  1.5426         -DE/DX =    0.0                 !
 ! R2    R(1,4)                  1.0858         -DE/DX =    0.0                 !
 ! R3    R(1,5)                  1.0857         -DE/DX =    0.0                 !
 ! R4    R(1,6)                  1.0857         -DE/DX =    0.0                 !
 ! R5    R(2,3)                  1.4386         -DE/DX =    0.0                 !
 ! R6    R(2,7)                  1.0967         -DE/DX =    0.0                 !
 ! R7    R(2,8)                  1.0967         -DE/DX =    0.0                 !
 ! R8    R(3,9)                  1.0663         -DE/DX =    0.0                 !
 ! R9    R(9,10)                 1.1001         -DE/DX =    0.0                 !
 ! A1    A(2,1,4)              110.0726         -DE/DX =    0.0                 !
 ! A2    A(2,1,5)              110.337          -DE/DX =    0.0                 !
 ! A3    A(2,1,6)              110.3372         -DE/DX =    0.0                 !
 ! A4    A(4,1,5)              108.7472         -DE/DX =    0.0                 !
 ! A5    A(4,1,6)              108.7475         -DE/DX =    0.0                 !
 ! A6    A(5,1,6)              108.5528         -DE/DX =    0.0                 !
 ! A7    A(1,2,3)              107.9959         -DE/DX =    0.0                 !
 ! A8    A(1,2,7)              109.5053         -DE/DX =    0.0                 !
 ! A9    A(1,2,8)              109.5042         -DE/DX =    0.0                 !
 ! A10   A(3,2,7)              111.1886         -DE/DX =    0.0                 !
 ! A11   A(3,2,8)              111.1865         -DE/DX =    0.0                 !
 ! A12   A(7,2,8)              107.4475         -DE/DX =    0.0                 !
 ! A13   A(2,3,9)              103.9987         -DE/DX =    0.0                 !
 ! A14   A(3,9,10)             174.9622         -DE/DX =    0.0                 !
 ! D1    D(4,1,2,3)           -179.9804         -DE/DX =    0.0                 !
 ! D2    D(4,1,2,7)            -58.7666         -DE/DX =    0.0                 !
 ! D3    D(4,1,2,8)             58.8089         -DE/DX =    0.0                 !
 ! D4    D(5,1,2,3)            -59.9565         -DE/DX =    0.0                 !
 ! D5    D(5,1,2,7)             61.2574         -DE/DX =    0.0                 !
 ! D6    D(5,1,2,8)            178.8328         -DE/DX =    0.0                 !
 ! D7    D(6,1,2,3)             59.9952         -DE/DX =    0.0                 !
 ! D8    D(6,1,2,7)           -178.791          -DE/DX =    0.0                 !
 ! D9    D(6,1,2,8)            -61.2155         -DE/DX =    0.0                 !
 ! D10   D(1,2,3,9)           -179.9548         -DE/DX =    0.0                 !
 ! D11   D(7,2,3,9)             59.8833         -DE/DX =    0.0                 !
 ! D12   D(8,2,3,9)            -59.7954         -DE/DX =    0.0                 !
 ! D13   D(2,3,9,10)            -0.0955         -DE/DX =    0.0                 !
 --------------------------------------------------------------------------------
 GradGradGradGradGradGradGradGradGradGradGradGradGradGradGradGradGradGrad

 Leave Link  103 at Thu Jan 24 17:08:50 2019, MaxMem=  134217728 cpu:       0.0
 (Enter /home/programs/G09_64/g09/l9999.exe)
 1\1\GINC-AF2CIQUS\Freq\UHF\STO-3G\C2H7O1(2)\RAMOS\24-Jan-2019\0\\#P Ge
 om=AllCheck Guess=TCheck SCRF=Check GenChk UHF/STO-3G Freq\\---\\0,2\C
 ,1.337186425,-0.1775506926,-0.0001999136\C,-0.028260978,0.5402780303,-
 0.0005160004\O,-1.0583302633,-0.4639693123,0.0012941105\H,2.1415707179
 ,0.5517193635,-0.0011914402\H,1.4344117687,-0.8030828813,0.8818058707\
 H,1.4338724131,-0.804891886,-0.8809775909\H,-0.1026796028,1.1860150401
 ,0.8827456678\H,-0.1035062973,1.1836219672,-0.8854487104\H,-1.96526973
 03,0.0967894477,0.0001571083\H,-2.8465593233,0.7552689741,-0.001001330
 6\\Version=AM64L-G09RevB.01\HF=-152.5855707\S2=0.78817\S2-1=0.\S2A=0.7
 50065\RMSD=4.754e-10\RMSF=2.317e-05\ZeroPoint=0.0919047\Thermal=0.0966
 738\Dipole=0.0810365,0.496859,-0.0009968\DipoleDeriv=-0.015671,-0.0457
 533,0.0000343,-0.1006004,-0.0152521,-0.0000203,0.0001026,-0.0000247,-0
 .0327036,0.5382501,-0.0254405,0.0000678,0.1594789,0.1465785,0.0003929,
 -0.0002535,0.000314,0.3096851,0.3603008,-0.3510338,0.0006002,-0.393261
 ,-0.0248293,-0.0008372,0.0007731,-0.0007152,-0.4116239,-0.0499302,-0.0
 170479,0.0000357,0.0080341,-0.0011782,0.0000453,0.0000322,0.0000464,0.
 0437569,0.0136814,0.0255051,-0.0093195,0.0202093,0.0170947,0.0307532,0
 .0097418,0.0269826,0.0003205,0.0136493,0.0255264,0.0092592,0.020173,0.
 0169551,-0.0308021,-0.0097802,-0.0270392,0.0004214,-0.092796,0.0265916
 ,0.0402832,-0.0631599,-0.0260221,-0.0247527,0.0046632,-0.0383426,-0.05
 52991,-0.0928027,0.0265212,-0.0403599,-0.0631965,-0.0258277,0.0246612,
 -0.0044602,0.0382325,-0.0554249,-1.1103485,0.5186528,-0.0009292,0.7080
 864,-0.2023231,0.0007719,-0.0013567,0.0007646,0.2045264,0.4356668,-0.1
 835217,0.0003282,-0.2957639,0.1148043,-0.0002121,0.0005376,-0.0002184,
 -0.0036588\Polar=27.021467,-4.180028,14.1858222,0.0076412,-0.0056869,1
 0.9367869\PolarDeriv=1.7938975,-2.9600934,-0.1623807,0.0023157,0.00108
 55,-0.4203885,-4.2500428,-0.5395899,0.274204,0.0015228,0.0044698,2.095
 9886,0.0032593,0.0016786,0.0046229,-0.6756263,2.2238686,-0.0065308,-0.
 5348872,1.9178386,1.1486514,-0.0008736,-0.0034551,0.3956799,4.9906468,
 0.6484567,0.0429595,-0.0032571,-0.0063857,-2.2977353,-0.0045054,-0.004
 2545,-0.006007,-0.3192129,-2.2613905,0.0083981,13.9221321,-8.9737351,1
 .9551643,0.0152477,-0.0027668,0.0324457,-7.1156397,1.01938,-6.2153458,
 -0.0001605,0.0083249,0.6101079,0.0137142,-0.0007423,0.0034799,0.744967
 3,-2.1211184,0.0073587,5.1454133,2.1437368,0.0263473,-0.0029336,-0.000
 1093,0.1693279,1.4370316,2.1664252,2.6354936,-0.0004618,-0.002709,-0.3
 033434,-0.0017016,-0.0004794,-0.0010134,2.1319139,0.8339764,-0.0025293
 ,0.9817967,-1.0920424,0.304503,2.0503079,-0.1821416,0.1342673,0.259204
 5,0.889751,-3.0181153,-0.331204,1.938109,-0.6594642,0.49604,-0.347523,
 0.4356321,0.907496,-2.0159413,3.7611939,0.9787395,-1.0959299,0.3048576
 ,-2.047771,0.18105,0.1334054,0.258564,0.8900831,-3.0272165,0.3306659,-
 1.937829,-0.6595384,-0.4959978,0.3470618,-0.438064,0.9053317,-2.019120
 5,-3.7521985,0.1041412,1.2203017,-0.2331442,1.9541985,-0.0680819,-0.19
 82098,-0.8699053,0.5500332,2.7686863,0.294601,1.9985153,0.6373903,0.42
 22756,0.0817751,0.3899556,0.1781361,2.0206143,3.9002025,0.1003945,1.21
 52019,-0.2331379,-1.9572956,0.0689099,-0.1985236,-0.8718333,0.5477511,
 2.7565116,-0.2950811,-1.9980514,0.6371743,-0.4200278,-0.0821095,-0.386
 1737,0.1781399,2.0160707,-3.9112309,-27.6173634,11.7497035,-5.6703168,
 -0.0203312,0.0101023,-0.0080899,13.4966206,-7.33374,3.5116808,0.009629
 9,-0.005859,-0.0807338,-0.0262689,0.0111832,-0.0057327,-1.5839689,0.28
 07433,-0.0009798,5.1257358,-4.1249816,2.5594559,0.0071354,-0.0045931,-
 0.0399144,-7.3346464,1.1614498,0.2711417,-0.0062552,0.0014152,0.020154
 ,0.0132124,-0.00659,0.0033002,-2.4671768,1.0422974,-0.003684\HyperPola
 r=-148.5177313,77.7767315,-28.2498627,19.9358888,-0.1291738,0.0546845,
 -0.0336434,2.6857939,-0.2408812,-0.0038136\PG=C01 [X(C2H7O1)]\NImag=1\
 \0.74877037,0.06274568,0.83463675,-0.00002958,0.00001534,0.86321663,-0
 .26051748,0.08761891,-0.00004962,0.71263393,0.08878548,-0.16927990,0.0
 0001351,0.00112158,0.81898112,-0.00005223,0.00002348,-0.12549203,0.000
 09250,0.00000576,0.83470769,-0.03985890,-0.02483300,0.00004990,-0.2567
 8490,-0.19222242,0.00032913,0.48036557,0.01125000,0.02234537,-0.000028
 44,-0.09240568,-0.26283811,0.00034244,0.09403157,0.42240485,-0.0000046
 2,-0.00001852,0.00360408,0.00014467,0.00033369,-0.07378445,-0.00012609
 ,-0.00066401,0.06088033,-0.28470562,-0.19535663,0.00026273,-0.02285840
 ,-0.02963029,0.00003995,-0.00336850,0.00547937,-0.00000692,0.29503167,
 -0.19366834,-0.25378837,0.00023689,0.02017300,0.01925896,-0.00002874,0
 .00400442,-0.00334283,0.00000502,0.20430896,0.25827290,0.00025988,0.00
 023664,-0.07959671,-0.00001346,-0.00001169,-0.00077175,-0.00000318,0.0
 0000232,0.00064272,-0.00027912,-0.00025527,0.06862433,-0.07829065,0.01
 668280,-0.02722258,-0.00148168,0.02460602,-0.03690698,0.00289598,-0.00
 041545,0.00084751,0.00700995,-0.01729506,0.03099701,0.07421605,0.01614
 410,-0.20655145,0.17996386,-0.00042099,-0.01034469,0.01579174,-0.00107
 804,0.00085160,-0.00063929,0.00829210,-0.01136893,0.02410679,-0.021841
 60,0.20629117,-0.02553342,0.17985408,-0.33728018,0.00129663,-0.0051637
 6,0.00586245,-0.00023926,0.00014034,0.00001002,-0.00210180,-0.00710241
 ,0.00521271,0.02751634,-0.19268483,0.34376534,-0.07825992,0.01662572,0
 .02702975,-0.00145825,0.02468888,0.03685800,0.00289453,-0.00041803,-0.
 00084992,0.00699212,-0.01735357,-0.03096255,-0.00003542,-0.00279352,-0
 .00295596,0.07418333,0.01608383,-0.20729031,-0.18024095,-0.00043302,-0
 .01037023,-0.01575633,-0.00107640,0.00085278,0.00063800,0.00828156,-0.
 01140322,-0.02407776,-0.00277156,0.02044002,0.02579998,-0.02178036,0.2
 0708493,0.02534334,-0.18013529,-0.33657600,-0.00129408,0.00518312,0.00
 586199,0.00023917,-0.00014124,0.00000987,0.00208386,0.00714710,0.00526
 498,0.00294979,-0.02588013,-0.01942291,-0.02730476,0.19297940,0.343009
 18,-0.00198243,0.02331697,0.03530395,-0.07454790,0.02056653,0.02110640
 ,-0.00375269,-0.03241015,-0.02594185,0.00216433,-0.00081925,-0.0001910
 1,0.00193088,-0.00128599,-0.00027603,-0.00710285,0.00328421,-0.0018671
 9,0.07961004,0.00141300,-0.00868464,-0.01626385,0.01933551,-0.19538231
 ,-0.16667094,-0.00672178,-0.02685112,-0.02417850,-0.00043131,0.0007541
 7,0.00046839,-0.00162236,0.00096246,-0.00013375,0.00285199,-0.00021276
 ,0.00049172,-0.01224752,0.20742088,-0.00245647,0.00468711,0.00571741,0
 .02376266,-0.16095833,-0.32183595,-0.00275733,-0.00083888,0.00912882,0
 .00014448,0.00016377,0.00016754,0.00019007,0.00002330,0.00095781,-0.00
 155786,0.00064507,0.00086342,-0.02212764,0.18034407,0.32573771,-0.0020
 0948,0.02322375,-0.03535671,-0.07458981,0.02066174,-0.02140043,-0.0037
 2961,-0.03234176,0.02604387,0.00216230,-0.00081910,0.00019237,-0.00710
 078,0.00328582,0.00186475,0.00193314,-0.00128617,0.00027813,0.00299757
 ,-0.00150550,0.00492576,0.07965310,0.00143465,-0.00865704,0.01629782,0
 .01941612,-0.19450191,0.16630770,-0.00668243,-0.02678487,0.02429053,-0
 .00043069,0.00075129,-0.00046899,0.00285613,-0.00021532,-0.00049025,-0
 .00162331,0.00096327,0.00013592,-0.00154186,0.01899326,-0.02485780,-0.
 01235690,0.20645117,0.00246064,-0.00467156,0.00571755,-0.02404628,0.16
 060329,-0.32268269,0.00278479,0.00096120,0.00902897,-0.00014506,-0.000
 16459,0.00016842,0.00155806,-0.00064589,0.00086332,-0.00018653,-0.0000
 2315,0.00095871,-0.00494363,0.02475095,-0.02128823,0.02239202,-0.18001
 091,0.32667330,-0.00367781,-0.01225006,0.00001461,-0.01377196,0.046545
 84,-0.00007178,-0.06732041,-0.02265913,0.00003224,-0.00314482,0.001827
 05,0.00000008,0.00110817,-0.00034806,0.00063934,0.00110476,-0.00034863
 ,-0.00063877,-0.00037270,-0.00271726,-0.00048149,-0.00037378,-0.002718
 24,0.00048951,-0.03616603,-0.00419291,-0.00108444,0.00000459,-0.057423
 86,-0.00015359,-0.00000962,0.04877302,-0.07887244,0.00012710,-0.000031
 41,0.00057685,-0.00000048,-0.00032993,-0.00003999,-0.00037410,-0.00032
 815,-0.00003932,0.00037399,0.00193864,0.00402555,0.00082842,0.00194108
 ,0.00402705,-0.00083932,0.08907909,0.02518282,0.00001225,0.00000549,0.
 00072955,0.00011185,0.00000438,-0.00120162,-0.00012429,0.00013009,-0.0
 1535885,0.00000095,-0.00000124,0.00026010,0.00004292,-0.00003104,0.000
 02723,-0.00004185,0.00003114,0.00002596,-0.00087904,0.00109240,0.00045
 090,0.00087347,-0.00110816,0.00045985,-0.00015316,-0.00001043,0.025279
 95,0.00053192,0.00222586,-0.00000246,-0.00662355,-0.00512338,0.0000054
 6,-0.11134107,0.06988926,-0.00013890,0.00071697,-0.00035811,-0.0000000
 4,-0.00025250,0.00004618,-0.00021060,-0.00025143,0.00004653,0.00021052
 ,0.00105575,0.00164525,0.00035782,0.00105735,0.00164653,-0.00036352,0.
 12261458,-0.07942557,0.00015690,-0.00750803,0.00000452,-0.00164598,0.0
 0000123,0.00301841,0.00463068,-0.00000549,0.08580506,-0.04776522,0.000
 10599,-0.00048167,0.00028918,0.00000004,0.00013102,-0.00002487,0.00015
 470,0.00013033,-0.00002516,-0.00015460,-0.00080158,-0.00102548,-0.0000
 3673,-0.00080296,-0.00102689,0.00003999,-0.09641060,0.04637750,-0.0001
 1262,0.00940746,0.00021624,0.00000021,0.00000323,-0.00004030,-0.000004
 87,-0.00000997,-0.00066363,-0.00015284,0.00009618,0.00583850,0.0000009
 4,-0.00000053,0.00002767,0.00002785,-0.00000450,0.00000421,-0.00002833
 ,0.00000459,0.00000481,-0.00018397,0.00009952,0.00010056,0.00018677,-0
 .00009586,0.00010080,0.00016942,-0.00010015,-0.01067306,-0.00001518,0.
 00000749,0.00530044\\-0.00000931,0.00002621,-0.00000239,-0.00002760,-0
 .00007326,0.00000759,0.00006671,0.00000613,0.00000453,-0.00000050,0.00
 000066,0.00000101,-0.00000351,-0.00000649,-0.00000421,-0.00000359,-0.0
 0000442,0.00000325,0.00000946,0.00001408,-0.00001426,0.00000358,0.0000
 1140,0.00001143,-0.00004103,0.00004137,-0.00000829,0.00000580,-0.00001
 568,0.00000134\\\@


 THE NUMBERS ARE MEANINGLESS, BUT THE TRENDS ARE IMPORTANT.
     -- LARRY BURGGRAF
 Job cpu time:  0 days  0 hours  0 minutes  2.1 seconds.
 File lengths (MBytes):  RWF=      5 Int=      0 D2E=      0 Chk=      1 Scr=      1
 Normal termination of Gaussian 09 at Thu Jan 24 17:08:50 2019.
