[Molden Format]
[FR-COORD] # Coordinates in bohr
  C    +0.084828    +1.085942    -0.000110 
  C    +2.365112    -0.727831    -0.000132 
  H    +4.118627    +0.337546    +0.000176 
  H    +2.321237    -1.925741    +1.664500 
  H    +2.321588    -1.925355    -1.665051 
  H    +0.178476    +2.312930    +1.669148 
  H    +0.178182    +2.312594    -1.669624 
  O    -2.188363    -0.394304    +0.000247 
  H    -3.558225    +0.881952    -0.000181 
[FREQ] # Frequencies in cm^-1
  222.9976
  350.6969
  438.2621
  951.6488
 1076.3087
 1226.9944
 1345.3218
 1351.1343
 1510.8065
 1574.2893
 1709.0392
 1790.1494
 1819.9928
 1826.4748
 1851.0252
 3539.7384
 3574.5390
 3650.8070
 3758.8969
 3761.5953
 4230.0306
[FR-NORM-COORD] # Displacements in bohr
vibration  1
      +0.000     -0.000     +0.227
      -0.000     +0.000     +0.002
      +0.000     +0.000     -0.549
      +0.329     +0.318     +0.237
      -0.329     -0.318     +0.237
      -0.026     -0.082     +0.127
      +0.026     +0.082     +0.127
      -0.000     -0.000     -0.257
      +0.000     +0.000     +0.056
vibration  2
      +0.000     +0.000     +0.140
      +0.000     -0.000     -0.099
      +0.000     -0.000     -0.085
      +0.059     -0.010     -0.035
      -0.059     +0.010     -0.035
      +0.011     -0.009     +0.050
      -0.011     +0.009     +0.050
      -0.000     +0.000     +0.216
      +0.000     -0.000     -0.949
vibration  3
      -0.011     -0.407     +0.000
      +0.443     +0.065     -0.000
      -0.001     +0.237     -0.000
      +0.290     +0.019     +0.005
      +0.290     +0.019     -0.005
      +0.025     -0.110     -0.007
      +0.025     -0.110     +0.007
      -0.534     +0.229     +0.000
      +0.009     +0.213     +0.000
vibration  4
      -0.000     -0.000     -0.244
      -0.000     +0.000     -0.139
      -0.000     +0.000     +0.173
      -0.301     +0.296     +0.166
      +0.301     -0.296     +0.166
      +0.168     -0.399     +0.215
      -0.168     +0.399     +0.215
      -0.000     +0.000     +0.106
      -0.000     -0.000     -0.035
vibration  5
      -0.047     +0.373     -0.000
      +0.500     -0.092     -0.000
      +0.397     -0.429     -0.000
      -0.099     -0.068     -0.029
      -0.099     -0.068     +0.029
      -0.144     +0.124     +0.000
      -0.144     +0.124     -0.000
      -0.340     -0.148     +0.000
      -0.121     -0.064     +0.000
vibration  6
      +0.346     -0.331     +0.000
      -0.080     +0.460     -0.000
      +0.184     -0.219     +0.000
      -0.366     +0.124     -0.024
      -0.366     +0.124     +0.024
      +0.030     -0.104     -0.002
      +0.030     -0.104     +0.002
      -0.160     -0.129     +0.000
      +0.211     +0.245     -0.000
vibration  7
      -0.001     -0.001     +0.449
      +0.000     -0.000     -0.249
      +0.000     -0.000     +0.141
      -0.197     +0.206     +0.071
      +0.197     -0.206     +0.071
      +0.362     +0.329     -0.125
      -0.364     -0.329     -0.125
      +0.001     +0.001     -0.180
      +0.001     +0.000     -0.007
vibration  8
      -0.423     -0.287     -0.001
      +0.141     -0.005     +0.001
      +0.124     -0.138     -0.000
      -0.060     -0.035     -0.023
      -0.061     -0.034     +0.023
      -0.417     -0.057     +0.000
      -0.415     -0.056     +0.000
      +0.397     +0.289     +0.000
      +0.219     +0.177     -0.000
vibration  9
      +0.000     -0.000     -0.169
      +0.000     +0.000     +0.317
      +0.000     -0.000     -0.109
      +0.197     -0.215     -0.052
      -0.197     +0.216     -0.052
      +0.569     -0.122     +0.008
      -0.569     +0.122     +0.008
      -0.000     -0.000     -0.074
      -0.000     -0.000     -0.016
vibration  10
      +0.333     +0.242     -0.000
      -0.140     -0.182     +0.000
      -0.161     +0.143     -0.000
      +0.138     +0.010     +0.053
      +0.138     +0.011     -0.053
      -0.325     +0.134     -0.019
      -0.325     +0.134     +0.019
      -0.135     -0.268     +0.000
      +0.405     +0.429     -0.000
vibration  11
      -0.172     +0.044     -0.000
      -0.304     +0.257     -0.000
      +0.228     -0.444     +0.000
      +0.389     -0.174     -0.165
      +0.389     -0.174     +0.165
      +0.169     -0.029     +0.017
      +0.169     -0.029     -0.017
      +0.025     -0.094     +0.000
      +0.198     +0.188     -0.000
vibration  12
      +0.458     -0.139     +0.000
      -0.252     +0.099     -0.000
      +0.077     -0.220     +0.000
      +0.209     +0.054     +0.021
      +0.209     +0.054     -0.021
      -0.337     -0.069     +0.043
      -0.337     -0.069     -0.043
      -0.039     +0.187     -0.000
      -0.378     -0.359     +0.000
vibration  13
      +0.000     +0.000     +0.046
      -0.000     -0.000     +0.196
      +0.000     +0.000     -0.716
      -0.453     -0.125     -0.052
      +0.453     +0.125     -0.051
      -0.007     +0.022     +0.002
      +0.007     -0.022     +0.002
      -0.000     +0.000     -0.005
      -0.000     -0.000     -0.001
vibration  14
      -0.142     +0.152     -0.000
      -0.026     -0.179     -0.000
      +0.099     -0.214     +0.000
      +0.095     +0.429     +0.346
      +0.095     +0.429     -0.345
      +0.070     -0.258     +0.209
      +0.070     -0.258     -0.209
      +0.017     -0.028     +0.000
      +0.081     +0.079     -0.000
vibration  15
      -0.070     -0.286     +0.000
      -0.064     -0.059     +0.000
      +0.081     -0.180     -0.000
      +0.079     +0.238     +0.186
      +0.079     +0.238     -0.185
      +0.073     +0.433     -0.378
      +0.073     +0.433     +0.378
      +0.021     +0.012     -0.000
      -0.009     -0.020     +0.000
vibration  16
      +0.012     +0.239     +0.000
      -0.003     -0.008     -0.000
      +0.025     +0.020     +0.000
      +0.003     -0.010     +0.008
      +0.003     -0.010     -0.008
      -0.034     -0.399     -0.557
      -0.034     -0.399     +0.557
      +0.004     -0.002     -0.000
      -0.010     +0.009     -0.000
vibration  17
      -0.008     +0.015     +0.000
      +0.144     -0.110     -0.000
      -0.492     -0.303     -0.000
      +0.015     +0.326     -0.457
      +0.015     +0.326     +0.457
      -0.003     -0.011     -0.018
      -0.003     -0.011     +0.018
      -0.001     -0.000     +0.000
      -0.000     +0.001     -0.000
vibration  18
      +0.000     +0.000     +0.317
      +0.000     +0.000     -0.020
      +0.000     +0.000     -0.002
      -0.006     -0.020     +0.031
      +0.006     +0.020     +0.031
      -0.028     -0.395     -0.540
      +0.028     +0.395     -0.540
      -0.000     +0.000     -0.000
      +0.000     -0.000     -0.004
vibration  19
      -0.000     -0.004     -0.000
      -0.195     -0.249     -0.000
      +0.654     +0.400     +0.000
      +0.008     +0.227     -0.323
      +0.007     +0.227     +0.323
      -0.001     +0.009     +0.008
      -0.001     +0.009     -0.008
      +0.001     -0.000     -0.000
      +0.003     -0.001     +0.000
vibration  20
      -0.000     +0.000     -0.016
      +0.000     +0.000     -0.316
      -0.000     -0.000     -0.004
      -0.018     -0.391     +0.544
      +0.018     +0.391     +0.544
      -0.003     +0.023     +0.030
      +0.003     -0.023     +0.030
      +0.000     -0.000     +0.000
      -0.000     +0.000     +0.000
vibration  21
      +0.009     +0.016     -0.000
      +0.001     -0.001     -0.000
      -0.002     -0.000     +0.000
      +0.001     -0.001     +0.001
      +0.001     -0.001     -0.001
      +0.003     -0.004     -0.006
      +0.003     -0.004     +0.006
      -0.190     +0.154     -0.000
      +0.717     -0.652     +0.000
