[Molden Format]
[FR-COORD] # Coordinates in bohr
  C    -0.128887    +1.055366    +0.124177 
  C    -2.460733    -0.626185    -0.037381 
  O    +2.208337    -0.318211    -0.160218 
  H    -3.038176    -1.354622    -1.859453 
  H    -3.036754    -1.692677    +1.611764 
  H    -0.164005    +2.445053    -1.405696 
  H    -0.150680    +2.098726    +1.916242 
  H    +2.175875    -1.556421    +1.246463 
[FREQ] # Frequencies in cm^-1
  162.9864
  361.3523
  412.9424
  637.7729
  901.9670
 1163.4679
 1243.2640
 1300.3028
 1482.3607
 1598.6054
 1722.2718
 1743.5127
 1809.5469
 3557.5932
 3622.9801
 3680.6417
 3796.7249
 4220.0161
[FR-NORM-COORD] # Displacements in bohr
vibration  1
      -0.002     +0.016     -0.172
      -0.008     -0.001     +0.076
      +0.007     -0.038     +0.147
      -0.438     +0.490     -0.035
      +0.449     -0.489     -0.135
      +0.004     -0.061     -0.107
      -0.006     +0.081     -0.092
      +0.000     +0.078     +0.114
vibration  2
      -0.016     +0.129     -0.123
      +0.126     -0.045     +0.080
      -0.015     +0.085     +0.173
      +0.028     -0.073     +0.049
      +0.159     -0.040     +0.050
      +0.009     -0.004     -0.072
      -0.024     +0.081     -0.058
      -0.493     -0.593     -0.508
vibration  3
      -0.001     -0.339     -0.086
      -0.256     -0.032     +0.024
      +0.434     +0.272     +0.085
      -0.442     +0.246     +0.027
      -0.387     +0.260     +0.066
      -0.025     -0.101     -0.028
      -0.043     -0.078     -0.035
      +0.054     -0.130     -0.154
vibration  4
      +0.016     -0.226     -0.038
      -0.575     +0.336     +0.040
      +0.300     +0.102     +0.030
      +0.296     -0.329     +0.021
      +0.303     -0.293     -0.062
      +0.022     -0.059     -0.006
      +0.013     -0.054     -0.018
      +0.097     -0.051     -0.058
vibration  5
      -0.002     +0.036     -0.215
      -0.002     +0.003     -0.137
      +0.020     -0.027     +0.069
      -0.364     -0.271     +0.185
      +0.362     +0.218     +0.230
      +0.139     +0.367     +0.260
      -0.127     -0.410     +0.181
      -0.073     +0.070     +0.083
vibration  6
      +0.124     +0.563     -0.013
      -0.401     -0.376     +0.030
      +0.311     -0.193     -0.033
      -0.082     -0.078     -0.026
      -0.234     -0.171     -0.059
      -0.002     +0.240     +0.056
      +0.173     +0.105     +0.038
      -0.140     +0.028     +0.064
vibration  7
      -0.263     -0.081     -0.343
      +0.160     +0.144     +0.235
      +0.209     -0.086     +0.053
      +0.304     +0.216     -0.076
      -0.155     -0.072     -0.083
      -0.431     +0.211     +0.126
      +0.088     -0.329     +0.070
      -0.281     +0.101     +0.123
vibration  8
      +0.522     -0.209     -0.217
      -0.117     -0.114     +0.109
      -0.419     +0.314     +0.094
      +0.064     +0.018     -0.025
      -0.170     -0.128     -0.070
      +0.194     +0.069     +0.050
      +0.364     -0.197     +0.022
      -0.177     +0.105     +0.021
vibration  9
      -0.109     +0.075     -0.223
      +0.010     -0.041     +0.282
      -0.008     -0.029     -0.017
      +0.216     +0.169     -0.051
      -0.194     -0.129     -0.059
      +0.610     +0.159     +0.037
      -0.488     -0.114     +0.009
      +0.229     -0.086     -0.070
vibration  10
      +0.480     -0.014     +0.058
      -0.008     +0.076     +0.039
      -0.036     -0.012     -0.091
      -0.084     -0.111     +0.086
      -0.120     -0.121     -0.114
      -0.349     -0.045     -0.003
      -0.698     +0.016     -0.001
      -0.236     +0.098     +0.057
vibration  11
      -0.046     -0.106     +0.190
      -0.142     -0.122     -0.015
      +0.157     +0.053     -0.197
      +0.186     +0.234     -0.182
      +0.212     +0.201     +0.236
      +0.315     -0.160     -0.053
      -0.098     +0.041     +0.011
      -0.593     +0.259     +0.169
vibration  12
      +0.255     +0.053     -0.105
      -0.245     -0.207     -0.017
      -0.115     -0.030     +0.106
      +0.274     +0.339     -0.276
      +0.266     +0.275     +0.330
      -0.316     +0.137     +0.081
      -0.116     +0.038     -0.043
      +0.317     -0.138     -0.094
vibration  13
      -0.040     -0.315     -0.008
      +0.046     +0.025     -0.000
      +0.015     +0.003     -0.025
      -0.022     -0.029     +0.026
      -0.017     -0.021     -0.029
      +0.041     +0.443     +0.482
      +0.002     +0.558     -0.375
      -0.085     +0.036     +0.024
vibration  14
      +0.002     +0.228     +0.086
      -0.006     -0.006     -0.003
      -0.002     +0.000     +0.002
      -0.001     +0.001     +0.007
      -0.003     -0.002     +0.000
      +0.012     -0.359     +0.401
      +0.008     -0.401     -0.700
      +0.006     -0.005     -0.003
vibration  15
      -0.013     -0.005     +0.001
      +0.130     +0.178     +0.008
      -0.001     -0.000     -0.000
      -0.193     -0.228     -0.600
      -0.204     -0.360     +0.575
      -0.001     -0.000     -0.002
      -0.001     -0.006     -0.006
      +0.001     -0.000     +0.001
vibration  16
      +0.004     -0.082     +0.304
      -0.000     +0.001     -0.016
      +0.001     +0.004     -0.005
      +0.007     +0.012     +0.030
      -0.002     -0.012     +0.020
      -0.013     +0.531     -0.588
      +0.003     -0.259     -0.451
      -0.009     -0.008     +0.013
vibration  17
      +0.000     -0.002     +0.012
      +0.004     -0.027     +0.330
      -0.000     +0.000     -0.000
      -0.194     -0.243     -0.611
      +0.182     +0.336     -0.522
      +0.003     +0.022     -0.022
      -0.004     -0.015     -0.024
      -0.001     -0.001     +0.001
vibration  18
      -0.014     +0.003     +0.010
      -0.000     +0.001     -0.000
      +0.010     -0.167     +0.178
      -0.000     -0.001     -0.001
      +0.001     +0.001     -0.000
      +0.001     +0.008     -0.010
      -0.002     -0.002     -0.008
      +0.007     +0.644     -0.725
