[Molden Format]
[FR-COORD] # Coordinates in bohr
  C    +0.007367    +1.005465    +0.040679 
  C    -2.447076    -0.453527    -0.352721 
  O    +2.279694    -0.316046    +0.296106 
  H    -3.964028    +0.845913    -0.822774 
  H    -2.258039    -1.803387    -1.890616 
  H    -2.995071    -1.489805    +1.339604 
  H    -0.056710    +2.652282    +1.273954 
  H    +2.142649    -1.760958    -0.884167 
[FREQ] # Frequencies in cm^-1
  159.3104
  361.7039
  448.7364
  741.4383
 1053.4371
 1202.2849
 1245.6394
 1354.9977
 1595.0027
 1695.9973
 1743.4885
 1819.3005
 1829.1908
 3547.5406
 3670.4898
 3715.2254
 3744.9970
 4240.3032
[FR-NORM-COORD] # Displacements in bohr
vibration  1
      -0.037     -0.042     +0.276
      -0.020     +0.014     -0.027
      +0.049     +0.014     -0.192
      +0.120     -0.033     -0.524
      +0.191     -0.321     +0.303
      -0.326     +0.379     +0.118
      -0.019     -0.097     +0.193
      +0.035     +0.112     -0.184
vibration  2
      +0.048     +0.073     -0.254
      +0.007     -0.006     +0.083
      -0.140     -0.173     +0.269
      -0.031     -0.024     +0.071
      -0.055     -0.035     +0.048
      +0.098     +0.030     +0.074
      -0.007     +0.002     -0.044
      +0.363     +0.487     -0.632
vibration  3
      -0.030     -0.471     +0.001
      -0.417     +0.092     -0.033
      +0.451     +0.239     +0.075
      +0.030     +0.229     +0.053
      -0.309     +0.056     -0.058
      -0.237     +0.047     -0.034
      -0.026     -0.032     -0.145
      +0.290     +0.057     -0.002
vibration  4
      +0.079     +0.081     -0.367
      -0.059     +0.008     -0.031
      +0.037     +0.058     +0.081
      -0.027     +0.027     +0.088
      -0.208     -0.094     +0.057
      +0.128     +0.141     +0.121
      -0.164     -0.513     +0.627
      +0.056     -0.102     +0.158
vibration  5
      -0.100     -0.389     -0.027
      +0.518     +0.047     +0.078
      -0.393     +0.183     -0.052
      +0.417     +0.341     +0.092
      -0.110     +0.047     -0.031
      -0.028     +0.123     +0.029
      -0.161     -0.090     -0.065
      +0.007     +0.029     +0.007
vibration  6
      +0.105     +0.016     -0.282
      -0.078     -0.058     +0.357
      -0.144     +0.080     +0.011
      +0.122     +0.046     -0.193
      +0.345     +0.265     -0.101
      -0.445     -0.302     -0.210
      +0.287     -0.145     +0.145
      +0.173     -0.036     +0.053
vibration  7
      -0.199     -0.410     -0.007
      +0.045     +0.427     -0.014
      -0.097     +0.083     -0.032
      -0.293     -0.252     -0.040
      +0.375     +0.047     +0.112
      +0.367     +0.017     +0.045
      +0.170     -0.123     -0.005
      +0.300     -0.081     +0.084
vibration  8
      +0.394     -0.066     +0.170
      -0.099     -0.174     -0.199
      -0.373     +0.233     -0.029
      -0.050     -0.026     +0.070
      -0.269     -0.170     +0.010
      +0.055     +0.072     +0.047
      +0.636     +0.011     +0.038
      +0.093     +0.013     +0.051
vibration  9
      -0.520     +0.314     +0.052
      +0.110     -0.151     -0.065
      +0.113     -0.191     -0.058
      +0.179     +0.161     +0.082
      -0.059     +0.005     -0.069
      +0.015     +0.144     +0.087
      +0.308     +0.097     +0.057
      +0.521     -0.207     +0.119
vibration  10
      +0.241     +0.102     +0.125
      +0.179     +0.124     +0.045
      -0.192     -0.057     -0.139
      -0.215     -0.275     +0.003
      -0.292     -0.077     +0.069
      -0.283     -0.104     -0.175
      -0.397     +0.086     -0.057
      +0.500     -0.181     +0.129
vibration  11
      -0.336     -0.067     -0.112
      +0.390     +0.163     +0.039
      +0.170     +0.009     +0.102
      -0.204     -0.324     +0.010
      -0.383     -0.045     +0.032
      -0.318     -0.028     -0.172
      +0.333     -0.076     +0.058
      -0.290     +0.104     -0.081
vibration  12
      -0.010     +0.015     -0.041
      -0.001     +0.055     -0.196
      +0.013     -0.002     +0.008
      -0.067     +0.187     +0.635
      +0.369     -0.370     +0.331
      -0.306     -0.045     -0.182
      +0.014     -0.010     +0.008
      -0.023     +0.007     -0.006
vibration  13
      +0.086     -0.051     -0.002
      +0.058     -0.174     -0.046
      -0.025     +0.017     -0.003
      -0.227     -0.222     +0.277
      +0.207     +0.356     -0.338
      -0.306     +0.571     +0.261
      -0.055     -0.009     -0.020
      -0.014     +0.010     -0.004
vibration  14
      +0.006     -0.000     +0.001
      -0.146     -0.109     -0.002
      +0.000     +0.000     -0.001
      +0.364     -0.317     +0.115
      -0.053     +0.361     +0.417
      +0.167     +0.320     -0.532
      +0.002     +0.010     +0.005
      -0.001     +0.001     +0.001
vibration  15
      -0.008     +0.240     +0.160
      -0.001     -0.018     -0.015
      +0.003     -0.008     -0.000
      -0.008     +0.012     -0.004
      -0.010     +0.035     +0.042
      -0.008     -0.014     +0.018
      +0.032     -0.771     -0.562
      +0.011     +0.003     +0.008
vibration  16
      -0.002     +0.010     +0.007
      -0.010     -0.037     +0.309
      -0.000     -0.000     -0.000
      -0.196     +0.167     -0.054
      +0.055     -0.387     -0.435
      +0.184     +0.353     -0.576
      -0.001     -0.039     -0.028
      +0.001     -0.000     +0.001
vibration  17
      -0.000     -0.010     -0.006
      +0.171     -0.262     -0.027
      -0.002     +0.001     +0.000
      -0.575     +0.495     -0.179
      -0.049     +0.340     +0.392
      +0.042     +0.068     -0.122
      +0.001     +0.033     +0.022
      -0.002     -0.001     -0.001
vibration  18
      -0.014     +0.000     -0.007
      -0.000     +0.002     +0.001
      -0.002     -0.193     -0.149
      -0.002     +0.001     -0.000
      +0.001     +0.001     -0.000
      -0.000     -0.000     +0.001
      +0.001     +0.007     +0.006
      +0.060     +0.754     +0.607
