[Molden Format]
[FR-COORD] # Coordinates in bohr
  C    -2.472012    -0.455639    +0.192911 
  C    +0.052090    +0.816590    -0.510464 
  O    +2.245059    -0.614159    +0.074400 
  H    -4.038808    +0.763874    -0.322667 
  H    -2.681716    -2.243744    -0.795671 
  H    -2.569509    -0.815499    +2.212287 
  H    +0.124709    +1.293061    -2.520125 
  H    +0.123482    +2.921121    +0.624215 
  H    +2.066435    -1.026272    +1.892102 
  H    +0.158300    +4.556812    +1.510128 
[FREQ] # Frequencies in cm^-1
 -2760.8405
  212.7036
  372.4086
  397.4931
  457.8396
  475.2184
 1030.5043
 1071.4814
 1245.6933
 1272.4964
 1357.1814
 1511.6991
 1626.1068
 1656.2503
 1696.8190
 1721.0264
 1743.0056
 1823.1559
 1830.1974
 3563.1628
 3643.7198
 3742.4038
 3753.2602
 4229.7341
[FR-NORM-COORD] # Displacements in bohr
vibration  1
      -0.003     -0.015     -0.011
      -0.008     +0.174     +0.079
      +0.016     -0.025     -0.004
      -0.001     -0.002     +0.000
      -0.003     -0.001     +0.003
      +0.002     +0.002     -0.002
      -0.013     -0.064     -0.010
      -0.019     -0.773     -0.416
      -0.001     +0.008     +0.001
      +0.008     +0.381     +0.205
vibration  2
      -0.008     -0.009     -0.006
      +0.001     -0.075     -0.093
      +0.015     +0.041     +0.150
      +0.021     +0.239     +0.497
      -0.274     +0.246     -0.393
      +0.241     -0.470     -0.073
      +0.008     -0.084     -0.041
      -0.013     +0.019     -0.105
      +0.010     +0.105     +0.060
      -0.031     +0.074     -0.202
vibration  3
      -0.107     -0.047     -0.079
      -0.061     -0.049     -0.007
      -0.041     -0.035     -0.017
      -0.022     -0.013     -0.052
      -0.010     -0.010     -0.033
      -0.067     -0.023     -0.027
      -0.024     -0.013     -0.002
      +0.082     -0.043     +0.053
      +0.406     +0.724     +0.204
      +0.381     -0.153     +0.221
vibration  4
      -0.084     +0.221     +0.038
      +0.102     -0.174     -0.038
      +0.193     -0.114     -0.084
      +0.064     +0.169     -0.012
      -0.159     +0.057     +0.056
      -0.047     +0.129     +0.021
      +0.028     -0.043     -0.009
      -0.162     -0.077     +0.034
      +0.206     +0.203     +0.048
      -0.760     -0.146     +0.197
vibration  5
      -0.298     +0.061     +0.014
      -0.085     -0.350     -0.153
      +0.375     +0.390     +0.084
      +0.015     +0.144     -0.011
      -0.260     +0.015     +0.044
      -0.108     +0.082     +0.015
      -0.032     -0.142     -0.054
      +0.023     -0.138     -0.023
      -0.108     -0.252     -0.078
      +0.296     -0.264     +0.248
vibration  6
      +0.295     +0.013     +0.080
      +0.017     +0.112     -0.479
      -0.298     -0.016     +0.191
      -0.018     -0.074     +0.158
      +0.068     -0.036     +0.100
      +0.308     +0.052     +0.043
      +0.047     -0.029     -0.151
      -0.007     -0.032     -0.031
      -0.259     +0.042     +0.039
      -0.031     -0.290     +0.457
vibration  7
      +0.253     +0.124     +0.121
      -0.047     -0.080     +0.146
      -0.168     +0.085     -0.066
      +0.182     +0.069     -0.205
      +0.287     +0.170     -0.248
      -0.303     -0.189     -0.028
      -0.253     -0.518     -0.084
      +0.063     +0.139     -0.224
      +0.019     -0.056     -0.032
      -0.042     -0.105     +0.159
vibration  8
      -0.444     +0.035     +0.108
      +0.114     +0.322     -0.146
      +0.322     -0.192     +0.049
      -0.393     -0.299     +0.082
      +0.211     +0.012     -0.054
      -0.078     -0.189     +0.003
      +0.032     -0.179     -0.116
      +0.135     +0.216     -0.152
      +0.022     -0.051     +0.013
      -0.072     +0.026     +0.159
vibration  9
      +0.053     +0.378     -0.232
      -0.272     -0.274     +0.209
      -0.004     +0.062     -0.003
      -0.291     -0.202     +0.138
      +0.338     +0.024     +0.028
      +0.432     +0.062     -0.060
      +0.103     -0.150     +0.059
      -0.076     -0.104     +0.002
      +0.251     -0.131     -0.010
      +0.016     -0.106     -0.067
vibration  10
      +0.082     +0.206     +0.130
      -0.247     -0.098     -0.205
      +0.277     -0.131     +0.109
      -0.025     -0.061     -0.092
      +0.293     +0.128     -0.139
      -0.115     -0.129     -0.005
      -0.431     +0.400     +0.037
      +0.030     -0.237     +0.152
      -0.256     +0.140     +0.045
      -0.026     -0.092     -0.169
vibration  11
      +0.148     -0.067     -0.199
      -0.409     +0.252     +0.048
      +0.324     -0.277     +0.094
      +0.127     +0.124     +0.032
      -0.186     -0.059     +0.067
      +0.167     +0.183     -0.020
      -0.363     -0.139     -0.046
      -0.288     +0.266     -0.080
      +0.061     -0.056     +0.040
      +0.092     +0.143     +0.152
vibration  12
      -0.047     -0.041     -0.240
      +0.147     -0.060     +0.186
      -0.039     +0.080     -0.021
      -0.076     -0.018     +0.103
      -0.125     -0.109     +0.123
      +0.202     +0.111     -0.040
      -0.478     -0.123     +0.016
      +0.653     +0.008     +0.052
      -0.198     +0.114     -0.003
      -0.170     +0.047     +0.017
vibration  13
      -0.043     +0.106     -0.047
      +0.346     -0.090     +0.040
      -0.015     +0.021     -0.110
      -0.134     -0.093     +0.055
      +0.012     -0.015     +0.065
      +0.002     -0.056     -0.027
      -0.176     -0.335     -0.069
      -0.491     -0.077     +0.432
      -0.328     +0.189     -0.018
      +0.127     +0.248     +0.025
vibration  14
      -0.007     -0.050     +0.096
      -0.313     -0.045     -0.235
      +0.052     -0.004     +0.035
      +0.127     +0.090     -0.109
      +0.100     +0.059     -0.124
      +0.059     +0.043     +0.039
      +0.258     -0.214     -0.116
      +0.327     -0.047     +0.524
      +0.099     -0.051     +0.008
      -0.071     +0.465     +0.119
vibration  15
      +0.134     -0.012     -0.026
      +0.020     +0.376     -0.099
      -0.057     -0.004     +0.110
      -0.086     -0.125     +0.072
      -0.222     +0.007     +0.029
      -0.193     +0.017     -0.016
      -0.160     -0.245     -0.126
      +0.030     -0.335     +0.327
      +0.344     -0.205     +0.012
      -0.017     -0.351     -0.305
vibration  16
      +0.291     +0.192     -0.036
      +0.027     -0.262     -0.150
      -0.104     +0.045     +0.083
      -0.223     -0.319     +0.039
      -0.323     +0.010     +0.152
      -0.289     -0.202     -0.075
      -0.144     +0.215     +0.015
      +0.025     +0.152     -0.038
      +0.267     -0.146     +0.005
      +0.004     +0.352     +0.214
vibration  17
      -0.292     -0.082     +0.057
      +0.332     -0.057     -0.186
      -0.183     +0.060     +0.139
      +0.135     +0.196     -0.133
      +0.251     -0.017     -0.070
      +0.282     +0.015     +0.041
      -0.409     +0.163     -0.039
      -0.130     +0.013     +0.028
      +0.427     -0.248     +0.006
      +0.037     +0.119     +0.057
vibration  18
      -0.016     +0.063     +0.182
      +0.008     +0.050     +0.069
      +0.014     -0.008     -0.019
      -0.020     -0.293     -0.640
      -0.405     +0.173     -0.151
      +0.450     -0.162     +0.037
      +0.005     -0.036     +0.013
      -0.004     -0.008     -0.019
      -0.054     +0.030     -0.001
      -0.001     -0.064     -0.030
vibration  19
      +0.061     -0.166     +0.065
      +0.086     -0.088     +0.012
      -0.026     +0.017     -0.002
      -0.178     -0.236     +0.150
      -0.067     +0.286     -0.560
      -0.071     +0.635     +0.132
      -0.059     +0.045     +0.020
      -0.040     +0.031     -0.035
      -0.000     +0.005     -0.002
      +0.011     +0.048     +0.036
vibration  20
      -0.151     -0.087     +0.047
      +0.007     +0.003     +0.001
      +0.001     +0.000     +0.000
      +0.407     -0.321     +0.136
      +0.056     +0.507     +0.284
      +0.025     +0.099     -0.573
      +0.002     +0.004     -0.011
      +0.001     +0.003     +0.000
      -0.001     -0.000     -0.001
      +0.000     -0.001     -0.001
vibration  21
      +0.003     +0.006     -0.017
      -0.012     -0.072     +0.278
      +0.001     +0.002     -0.006
      +0.007     -0.009     +0.002
      +0.001     +0.011     +0.005
      +0.004     -0.004     +0.040
      +0.030     +0.225     -0.929
      -0.002     +0.001     -0.002
      -0.012     +0.004     +0.011
      +0.000     -0.009     -0.004
vibration  22
      -0.008     -0.138     -0.283
      +0.000     +0.002     -0.010
      -0.000     -0.000     +0.001
      -0.008     +0.004     -0.007
      +0.066     +0.588     +0.324
      -0.029     -0.118     +0.655
      -0.005     -0.010     +0.036
      +0.003     +0.004     +0.002
      +0.002     -0.000     -0.001
      +0.000     +0.000     -0.000
vibration  23
      +0.162     -0.245     +0.114
      -0.001     -0.002     +0.006
      -0.002     +0.000     -0.000
      -0.607     +0.475     -0.201
      +0.037     +0.308     +0.176
      +0.018     +0.061     -0.366
      +0.002     +0.007     -0.021
      +0.001     +0.002     -0.000
      -0.001     -0.001     +0.001
      +0.000     -0.000     -0.000
vibration  24
      -0.000     +0.001     -0.001
      -0.014     +0.006     +0.005
      -0.009     -0.062     +0.236
      -0.002     +0.000     -0.001
      -0.000     -0.001     -0.000
      +0.001     +0.001     -0.000
      +0.001     +0.002     -0.011
      -0.001     +0.003     -0.000
      +0.082     +0.220     -0.941
      -0.000     -0.001     -0.001
