 Entering Gaussian System, Link 0=/home/programs/g09/g09
 Initial command:
 /home/programs/G09_64/g09/l1.exe /scratch/Gau-20765.inp -scrdir=/scratch/
 Entering Link 1 = /home/programs/G09_64/g09/l1.exe PID=     20767.
  
 Copyright (c) 1988,1990,1992,1993,1995,1998,2003,2009,2010,
            Gaussian, Inc.  All Rights Reserved.
  
 This is part of the Gaussian(R) 09 program.  It is based on
 the Gaussian(R) 03 system (copyright 2003, Gaussian, Inc.),
 the Gaussian(R) 98 system (copyright 1998, Gaussian, Inc.),
 the Gaussian(R) 94 system (copyright 1995, Gaussian, Inc.),
 the Gaussian 92(TM) system (copyright 1992, Gaussian, Inc.),
 the Gaussian 90(TM) system (copyright 1990, Gaussian, Inc.),
 the Gaussian 88(TM) system (copyright 1988, Gaussian, Inc.),
 the Gaussian 86(TM) system (copyright 1986, Carnegie Mellon
 University), and the Gaussian 82(TM) system (copyright 1983,
 Carnegie Mellon University). Gaussian is a federally registered
 trademark of Gaussian, Inc.
  
 This software contains proprietary and confidential information,
 including trade secrets, belonging to Gaussian, Inc.
  
 This software is provided under written license and may be
 used, copied, transmitted, or stored only in accord with that
 written license.
  
 The following legend is applicable only to US Government
 contracts under FAR:
  
                    RESTRICTED RIGHTS LEGEND
  
 Use, reproduction and disclosure by the US Government is
 subject to restrictions as set forth in subparagraphs (a)
 and (c) of the Commercial Computer Software - Restricted
 Rights clause in FAR 52.227-19.
  
 Gaussian, Inc.
 340 Quinnipiac St., Bldg. 40, Wallingford CT 06492
  
  
 ---------------------------------------------------------------
 Warning -- This program may not be used in any manner that
 competes with the business of Gaussian, Inc. or will provide
 assistance to any competitor of Gaussian, Inc.  The licensee
 of this program is prohibited from giving any competitor of
 Gaussian, Inc. access to this program.  By using this program,
 the user acknowledges that Gaussian, Inc. is engaged in the
 business of creating and licensing software in the field of
 computational chemistry and represents and warrants to the
 licensee that it is not a competitor of Gaussian, Inc. and that
 it will not use this program in any manner prohibited above.
 ---------------------------------------------------------------
  

 Cite this work as:
 Gaussian 09, Revision B.01,
 M. J. Frisch, G. W. Trucks, H. B. Schlegel, G. E. Scuseria, 
 M. A. Robb, J. R. Cheeseman, G. Scalmani, V. Barone, B. Mennucci, 
 G. A. Petersson, H. Nakatsuji, M. Caricato, X. Li, H. P. Hratchian, 
 A. F. Izmaylov, J. Bloino, G. Zheng, J. L. Sonnenberg, M. Hada, 
 M. Ehara, K. Toyota, R. Fukuda, J. Hasegawa, M. Ishida, T. Nakajima, 
 Y. Honda, O. Kitao, H. Nakai, T. Vreven, J. A. Montgomery, Jr., 
 J. E. Peralta, F. Ogliaro, M. Bearpark, J. J. Heyd, E. Brothers, 
 K. N. Kudin, V. N. Staroverov, T. Keith, R. Kobayashi, J. Normand, 
 K. Raghavachari, A. Rendell, J. C. Burant, S. S. Iyengar, J. Tomasi, 
 M. Cossi, N. Rega, J. M. Millam, M. Klene, J. E. Knox, J. B. Cross, 
 V. Bakken, C. Adamo, J. Jaramillo, R. Gomperts, R. E. Stratmann, 
 O. Yazyev, A. J. Austin, R. Cammi, C. Pomelli, J. W. Ochterski, 
 R. L. Martin, K. Morokuma, V. G. Zakrzewski, G. A. Voth, 
 P. Salvador, J. J. Dannenberg, S. Dapprich, A. D. Daniels, 
 O. Farkas, J. B. Foresman, J. V. Ortiz, J. Cioslowski, 
 and D. J. Fox, Gaussian, Inc., Wallingford CT, 2010.
 
 ******************************************
 Gaussian 09:  AM64L-G09RevB.01 12-Aug-2010
                23-Jan-2019 
 ******************************************
 %nproc=1
 Will use up to    1 processors via shared memory.
 %mem=1GB
 %chk=kk.chk
 ----------------------------------------------------------------------
 #p hf/sto-3g scf=verytight opt=(ts,noeigentest,calcfc) NoSymm freq uni
 ts=au
 ----------------------------------------------------------------------
 1/5=1,10=4,11=1,18=20,20=1,38=1/1,3;
 2/9=110,12=2,15=1,17=6,18=5,40=1/2;
 3/6=3,11=9,16=1,25=1,30=1,71=2/1,2,3;
 4//1;
 5/5=2,17=3,38=5/2;
 8/6=4,10=90,11=11/1;
 11/6=1,8=1,9=11,15=111,16=1,31=1/1,2,10;
 10/6=1,7=6,13=1,31=1/2;
 6/7=2,8=2,9=2,10=2,28=1/1;
 7/10=1,18=20,25=1,30=1/1,2,3,16;
 1/5=1,10=4,11=1,18=20/3(2);
 2/9=110,15=1/2;
 99//99;
 2/9=110,15=1/2;
 3/6=3,11=9,16=1,25=1,30=1,71=1/1,2,3;
 4/5=5,16=3/1;
 5/5=2,17=3,38=5/2;
 7/30=1/1,2,3,16;
 1/5=1,11=1,18=20/3(-5);
 2/9=110,15=1/2;
 6/7=2,8=2,9=2,10=2,19=2,28=1/1;
 99/9=1/99;
 Leave Link    1 at Wed Jan 23 23:55:43 2019, MaxMem=  134217728 cpu:       0.0
 (Enter /home/programs/G09_64/g09/l101.exe)
 -----
 --pru
 -----
 Symbolic Z-matrix:
 Charge =  0 Multiplicity = 2
 C                    -2.32008  -0.07522  -0.44628 
 C                     0.18111  -0.98495   0.48442 
 O                     2.18426   0.67968  -0.07189 
 H                    -2.81077   2.14674   0.86845 
 H                    -3.92151  -1.24572   0.05866 
 H                    -2.37211   0.54417  -2.39857 
 H                     0.16013  -1.16616   2.53023 
 H                     0.56991  -2.87234  -0.27508 
 H                     2.2864    0.89508  -1.86389 
 H                    -3.10951   3.53448   1.76707 
 
 NAtoms=     10 NQM=     10 NQMF=      0 NMic=      0 NMicF=      0 NTot=     10.
                    Isotopes and Nuclear Properties:
 (Nuclear quadrupole moments (NQMom) in fm**2, nuclear magnetic moments (NMagM)
  in nuclear magnetons)

  Atom         1           2           3           4           5           6           7           8           9          10
 IAtWgt=          12          12          16           1           1           1           1           1           1           1
 AtmWgt=  12.0000000  12.0000000  15.9949146   1.0078250   1.0078250   1.0078250   1.0078250   1.0078250   1.0078250   1.0078250
 NucSpn=           0           0           0           1           1           1           1           1           1           1
 AtZEff=   0.0000000   0.0000000   0.0000000   0.0000000   0.0000000   0.0000000   0.0000000   0.0000000   0.0000000   0.0000000
 NQMom=    0.0000000   0.0000000   0.0000000   0.0000000   0.0000000   0.0000000   0.0000000   0.0000000   0.0000000   0.0000000
 NMagM=    0.0000000   0.0000000   0.0000000   2.7928460   2.7928460   2.7928460   2.7928460   2.7928460   2.7928460   2.7928460
 Leave Link  101 at Wed Jan 23 23:55:43 2019, MaxMem=  134217728 cpu:       0.1
 (Enter /home/programs/G09_64/g09/l103.exe)

 GradGradGradGradGradGradGradGradGradGradGradGradGradGradGradGradGradGrad
 Berny optimization.
 Initialization pass.
                           ----------------------------
                           !    Initial Parameters    !
                           ! (Angstroms and Degrees)  !
 --------------------------                            --------------------------
 ! Name  Definition              Value          Derivative Info.                !
 --------------------------------------------------------------------------------
 ! R1    R(1,2)                  1.492          calculate D2E/DX2 analytically  !
 ! R2    R(1,4)                  1.3907         calculate D2E/DX2 analytically  !
 ! R3    R(1,5)                  1.0832         calculate D2E/DX2 analytically  !
 ! R4    R(1,6)                  1.0842         calculate D2E/DX2 analytically  !
 ! R5    R(2,3)                  1.4094         calculate D2E/DX2 analytically  !
 ! R6    R(2,7)                  1.0869         calculate D2E/DX2 analytically  !
 ! R7    R(2,8)                  1.0961         calculate D2E/DX2 analytically  !
 ! R8    R(3,9)                  0.9566         calculate D2E/DX2 analytically  !
 ! R9    R(4,10)                 0.889          calculate D2E/DX2 analytically  !
 ! A1    A(2,1,4)              105.8607         calculate D2E/DX2 analytically  !
 ! A2    A(2,1,5)              115.3475         calculate D2E/DX2 analytically  !
 ! A3    A(2,1,6)              115.76           calculate D2E/DX2 analytically  !
 ! A4    A(4,1,5)              102.3569         calculate D2E/DX2 analytically  !
 ! A5    A(4,1,6)              102.4951         calculate D2E/DX2 analytically  !
 ! A6    A(5,1,6)              112.8349         calculate D2E/DX2 analytically  !
 ! A7    A(1,2,3)              113.3656         calculate D2E/DX2 analytically  !
 ! A8    A(1,2,7)              110.3769         calculate D2E/DX2 analytically  !
 ! A9    A(1,2,8)              109.8458         calculate D2E/DX2 analytically  !
 ! A10   A(3,2,7)              105.7163         calculate D2E/DX2 analytically  !
 ! A11   A(3,2,8)              110.595          calculate D2E/DX2 analytically  !
 ! A12   A(7,2,8)              106.6637         calculate D2E/DX2 analytically  !
 ! A13   A(2,3,9)              108.9064         calculate D2E/DX2 analytically  !
 ! A14   L(1,4,10,2,-1)        178.455          calculate D2E/DX2 analytically  !
 ! A15   L(1,4,10,2,-2)        182.7541         calculate D2E/DX2 analytically  !
 ! D1    D(4,1,2,3)            -63.6518         calculate D2E/DX2 analytically  !
 ! D2    D(4,1,2,7)             54.7232         calculate D2E/DX2 analytically  !
 ! D3    D(4,1,2,8)            172.0633         calculate D2E/DX2 analytically  !
 ! D4    D(5,1,2,3)           -176.0325         calculate D2E/DX2 analytically  !
 ! D5    D(5,1,2,7)            -57.6575         calculate D2E/DX2 analytically  !
 ! D6    D(5,1,2,8)             59.6826         calculate D2E/DX2 analytically  !
 ! D7    D(6,1,2,3)             49.1061         calculate D2E/DX2 analytically  !
 ! D8    D(6,1,2,7)            167.4811         calculate D2E/DX2 analytically  !
 ! D9    D(6,1,2,8)            -75.1788         calculate D2E/DX2 analytically  !
 ! D10   D(1,2,3,9)            -59.2504         calculate D2E/DX2 analytically  !
 ! D11   D(7,2,3,9)            179.712          calculate D2E/DX2 analytically  !
 ! D12   D(8,2,3,9)             64.6266         calculate D2E/DX2 analytically  !
 --------------------------------------------------------------------------------
 Trust Radius=3.00D-01 FncErr=1.00D-07 GrdErr=1.00D-07
 Number of steps in this run=     46 maximum allowed number of steps=    100.
 Search for a saddle point of order  1.
 GradGradGradGradGradGradGradGradGradGradGradGradGradGradGradGradGradGrad

 Leave Link  103 at Wed Jan 23 23:55:43 2019, MaxMem=  134217728 cpu:       0.0
 (Enter /home/programs/G09_64/g09/l202.exe)
                          Input orientation:                          
 ---------------------------------------------------------------------
 Center     Atomic      Atomic             Coordinates (Angstroms)
 Number     Number       Type             X           Y           Z
 ---------------------------------------------------------------------
      1          6           0       -1.227732   -0.039805   -0.236163
      2          6           0        0.095837   -0.521215    0.256341
      3          8           0        1.155861    0.359673   -0.038041
      4          1           0       -1.487393    1.136007    0.459563
      5          1           0       -2.075173   -0.659208    0.031043
      6          1           0       -1.255264    0.287962   -1.269266
      7          1           0        0.084739   -0.617104    1.338937
      8          1           0        0.301585   -1.519975   -0.145563
      9          1           0        1.209913    0.473655   -0.986327
     10          1           0       -1.645480    1.870367    0.935093
 ---------------------------------------------------------------------
                    Distance matrix (angstroms):
                    1          2          3          4          5
     1  C    0.000000
     2  C    1.492029   0.000000
     3  O    2.424943   1.409353   0.000000
     4  H    1.390681   2.300935   2.799482   0.000000
     5  H    1.083150   2.187027   3.388579   1.936985   0.000000
     6  H    1.084201   2.192652   2.708243   1.939566   1.805598
     7  H    2.129975   1.086891   1.999366   2.513622   2.525387
     8  H    2.130240   1.096075   2.067468   3.258966   2.533986
     9  H    2.601634   1.942976   0.956639   3.131256   3.620802
    10  H    2.279278   3.035219   3.328167   0.889047   2.720421
                    6          7          8          9         10
     6  H    0.000000
     7  H    3.068791   0.000000
     8  H    2.637257   1.750983   0.000000
     9  H    2.488299   2.804037   2.346594   0.000000
    10  H    2.741436   3.056838   4.056266   3.714286   0.000000
 Symmetry turned off by external request.
 Stoichiometry    C2H7O(2)
 Framework group  C1[X(C2H7O)]
 Deg. of freedom    24
 Full point group                 C1      NOp   1
 Rotational constants (GHZ):     24.7818482      8.5498405      7.6760097
 Leave Link  202 at Wed Jan 23 23:55:43 2019, MaxMem=  134217728 cpu:       0.0
 (Enter /home/programs/G09_64/g09/l301.exe)
 Standard basis: STO-3G (5D, 7F)
 Ernie: Thresh=  0.10000D-02 Tol=  0.10000D-05 Strict=F.
 Integral buffers will be    131072 words long.
 Raffenetti 2 integral format.
 Two-electron integral symmetry is turned off.
    22 basis functions,    66 primitive gaussians,    22 cartesian basis functions
    14 alpha electrons       13 beta electrons
       nuclear repulsion energy        86.6445120296 Hartrees.
 IExCor=    0 DFT=F Ex=HF Corr=None ExCW=0 ScaHFX=  1.000000
 ScaDFX=  1.000000  1.000000  1.000000  1.000000 ScalE2=  1.000000  1.000000
 IRadAn=      0 IRanWt=     -1 IRanGd=            0 ICorTp=0
 NAtoms=   10 NActive=   10 NUniq=   10 SFac= 1.00D+00 NAtFMM=   50 NAOKFM=F Big=F
 Leave Link  301 at Wed Jan 23 23:55:43 2019, MaxMem=  134217728 cpu:       0.1
 (Enter /home/programs/G09_64/g09/l302.exe)
 NPDir=0 NMtPBC=     1 NCelOv=     1 NCel=       1 NClECP=     1 NCelD=      1
         NCelK=      1 NCelE2=     1 NClLst=     1 CellRange=     0.0.
 One-electron integrals computed using PRISM.
 NBasis=    22 RedAO= T  NBF=    22
 NBsUse=    22 1.00D-06 NBFU=    22
 Leave Link  302 at Wed Jan 23 23:55:44 2019, MaxMem=  134217728 cpu:       0.1
 (Enter /home/programs/G09_64/g09/l303.exe)
 DipDrv:  MaxL=1.
 Leave Link  303 at Wed Jan 23 23:55:44 2019, MaxMem=  134217728 cpu:       0.0
 (Enter /home/programs/G09_64/g09/l401.exe)
 Harris functional with IExCor=  205 diagonalized for initial guess.
 ExpMin= 1.69D-01 ExpMax= 1.31D+02 ExpMxC= 1.31D+02 IAcc=1 IRadAn=         1 AccDes= 0.00D+00
 HarFok:  IExCor=  205 AccDes= 0.00D+00 IRadAn=         1 IDoV= 1
 ScaDFX=  1.000000  1.000000  1.000000  1.000000
 FoFCou: FMM=F IPFlag=           0 FMFlag=      100000 FMFlg1=           0
         NFxFlg=           0 DoJE=T BraDBF=F KetDBF=T FulRan=T
         Omega=  0.000000  0.000000  1.000000  0.000000  0.000000 ICntrl=     500 IOpCl=  0
         NMat0=    1 NMatS0=    1 NMatT0=    0 NMatD0=    1 NMtDS0=    0 NMtDT0=    0
         I1Cent=           4 NGrid=           0.
 Symmetry not used in FoFCou.
 Harris En= -152.783299150332    
 Initial guess <Sx>= 0.0000 <Sy>= 0.0000 <Sz>= 0.5000 <S**2>= 0.7500 S= 0.5000
 Leave Link  401 at Wed Jan 23 23:55:44 2019, MaxMem=  134217728 cpu:       0.3
 (Enter /home/programs/G09_64/g09/l502.exe)
 UHF open shell SCF:
 Requested convergence on RMS density matrix=1.00D-08 within 128 cycles.
 Requested convergence on MAX density matrix=1.00D-06.
 Requested convergence on             energy=1.00D-06.
 No special actions if energy rises.
 Using DIIS extrapolation, IDIIS=  1040.
 Two-electron integral symmetry not used.
 Keep R1 and R2 ints in memory in canonical form, NReq=884165.
 IEnd=       19882 IEndB=       19882 NGot=   134217728 MDV=   134150703
 LenX=   134150703 LenY=   134149778
 Symmetry not used in FoFDir.
 MinBra= 0 MaxBra= 1 Meth= 1.
 IRaf=       0 NMat=   1 IRICut=       1 DoRegI=T DoRafI=F ISym2E= 0 JSym2E=0.

 Cycle   1  Pass 1  IDiag  1:
 E= -152.465535498869    
 DIIS: error= 3.77D-02 at cycle   1 NSaved=   1.
 NSaved= 1 IEnMin= 1 EnMin= -152.465535498869     IErMin= 1 ErrMin= 3.77D-02
 ErrMax= 3.77D-02 EMaxC= 1.00D-01 BMatC= 2.94D-01 BMatP= 2.94D-01
 IDIUse=3 WtCom= 6.23D-01 WtEn= 3.77D-01
 Coeff-Com:  0.100D+01
 Coeff-En:   0.100D+01
 Coeff:      0.100D+01
 Gap=     0.885 Goal=   None    Shift=    0.000
 Gap=     0.517 Goal=   None    Shift=    0.000
 GapD=    0.517 DampG=2.000 DampE=0.500 DampFc=1.0000 IDamp=-1.
 RMSDP=1.73D-02 MaxDP=1.16D-01              OVMax= 0.00D+00

 Cycle   2  Pass 1  IDiag  1:
 E= -152.553473254207     Delta-E=       -0.087937755338 Rises=F Damp=F
 DIIS: error= 1.11D-02 at cycle   2 NSaved=   2.
 NSaved= 2 IEnMin= 2 EnMin= -152.553473254207     IErMin= 2 ErrMin= 1.11D-02
 ErrMax= 1.11D-02 EMaxC= 1.00D-01 BMatC= 1.36D-02 BMatP= 2.94D-01
 IDIUse=3 WtCom= 8.89D-01 WtEn= 1.11D-01
 Coeff-Com:  0.496D-01 0.950D+00
 Coeff-En:   0.000D+00 0.100D+01
 Coeff:      0.441D-01 0.956D+00
 Gap=     0.873 Goal=   None    Shift=    0.000
 Gap=     0.572 Goal=   None    Shift=    0.000
 RMSDP=4.33D-03 MaxDP=4.01D-02 DE=-8.79D-02 OVMax= 0.00D+00

 Cycle   3  Pass 1  IDiag  1:
 E= -152.559279961896     Delta-E=       -0.005806707689 Rises=F Damp=F
 DIIS: error= 5.75D-03 at cycle   3 NSaved=   3.
 NSaved= 3 IEnMin= 3 EnMin= -152.559279961896     IErMin= 3 ErrMin= 5.75D-03
 ErrMax= 5.75D-03 EMaxC= 1.00D-01 BMatC= 2.04D-03 BMatP= 1.36D-02
 IDIUse=3 WtCom= 9.43D-01 WtEn= 5.75D-02
 Coeff-Com: -0.357D-01-0.129D+00 0.116D+01
 Coeff-En:   0.000D+00 0.000D+00 0.100D+01
 Coeff:     -0.337D-01-0.122D+00 0.116D+01
 Gap=     0.861 Goal=   None    Shift=    0.000
 Gap=     0.593 Goal=   None    Shift=    0.000
 RMSDP=1.88D-03 MaxDP=2.59D-02 DE=-5.81D-03 OVMax= 0.00D+00

 Cycle   4  Pass 1  IDiag  1:
 E= -152.560591667241     Delta-E=       -0.001311705345 Rises=F Damp=F
 DIIS: error= 2.34D-03 at cycle   4 NSaved=   4.
 NSaved= 4 IEnMin= 4 EnMin= -152.560591667241     IErMin= 4 ErrMin= 2.34D-03
 ErrMax= 2.34D-03 EMaxC= 1.00D-01 BMatC= 3.80D-04 BMatP= 2.04D-03
 IDIUse=3 WtCom= 9.77D-01 WtEn= 2.34D-02
 Coeff-Com:  0.497D-02-0.773D-01-0.443D+00 0.152D+01
 Coeff-En:   0.000D+00 0.000D+00 0.000D+00 0.100D+01
 Coeff:      0.486D-02-0.755D-01-0.433D+00 0.150D+01
 Gap=     0.869 Goal=   None    Shift=    0.000
 Gap=     0.595 Goal=   None    Shift=    0.000
 RMSDP=1.24D-03 MaxDP=1.72D-02 DE=-1.31D-03 OVMax= 0.00D+00

 Cycle   5  Pass 1  IDiag  1:
 E= -152.560894949693     Delta-E=       -0.000303282453 Rises=F Damp=F
 DIIS: error= 4.73D-04 at cycle   5 NSaved=   5.
 NSaved= 5 IEnMin= 5 EnMin= -152.560894949693     IErMin= 5 ErrMin= 4.73D-04
 ErrMax= 4.73D-04 EMaxC= 1.00D-01 BMatC= 2.84D-05 BMatP= 3.80D-04
 IDIUse=3 WtCom= 9.95D-01 WtEn= 4.73D-03
 Coeff-Com:  0.772D-03 0.358D-01 0.539D-01-0.467D+00 0.138D+01
 Coeff-En:   0.000D+00 0.000D+00 0.000D+00 0.000D+00 0.100D+01
 Coeff:      0.768D-03 0.356D-01 0.537D-01-0.465D+00 0.138D+01
 Gap=     0.869 Goal=   None    Shift=    0.000
 Gap=     0.597 Goal=   None    Shift=    0.000
 RMSDP=3.19D-04 MaxDP=2.69D-03 DE=-3.03D-04 OVMax= 0.00D+00

 Cycle   6  Pass 1  IDiag  1:
 E= -152.560919245982     Delta-E=       -0.000024296288 Rises=F Damp=F
 DIIS: error= 1.91D-04 at cycle   6 NSaved=   6.
 NSaved= 6 IEnMin= 6 EnMin= -152.560919245982     IErMin= 6 ErrMin= 1.91D-04
 ErrMax= 1.91D-04 EMaxC= 1.00D-01 BMatC= 5.18D-06 BMatP= 2.84D-05
 IDIUse=3 WtCom= 9.98D-01 WtEn= 1.91D-03
 Coeff-Com: -0.123D-02-0.548D-02 0.387D-01-0.246D-02-0.693D+00 0.166D+01
 Coeff-En:   0.000D+00 0.000D+00 0.000D+00 0.000D+00 0.000D+00 0.100D+01
 Coeff:     -0.122D-02-0.547D-02 0.387D-01-0.246D-02-0.692D+00 0.166D+01
 Gap=     0.869 Goal=   None    Shift=    0.000
 Gap=     0.596 Goal=   None    Shift=    0.000
 RMSDP=1.88D-04 MaxDP=1.58D-03 DE=-2.43D-05 OVMax= 0.00D+00

 Cycle   7  Pass 1  IDiag  1:
 E= -152.560924615408     Delta-E=       -0.000005369427 Rises=F Damp=F
 DIIS: error= 4.64D-05 at cycle   7 NSaved=   7.
 NSaved= 7 IEnMin= 7 EnMin= -152.560924615408     IErMin= 7 ErrMin= 4.64D-05
 ErrMax= 4.64D-05 EMaxC= 1.00D-01 BMatC= 4.19D-07 BMatP= 5.18D-06
 IDIUse=1 WtCom= 1.00D+00 WtEn= 0.00D+00
 Coeff-Com:  0.492D-03-0.129D-02-0.257D-01 0.550D-01 0.173D+00-0.777D+00
 Coeff-Com:  0.157D+01
 Coeff:      0.492D-03-0.129D-02-0.257D-01 0.550D-01 0.173D+00-0.777D+00
 Coeff:      0.157D+01
 Gap=     0.869 Goal=   None    Shift=    0.000
 Gap=     0.596 Goal=   None    Shift=    0.000
 RMSDP=5.40D-05 MaxDP=4.00D-04 DE=-5.37D-06 OVMax= 0.00D+00

 Cycle   8  Pass 1  IDiag  1:
 E= -152.560925019638     Delta-E=       -0.000000404230 Rises=F Damp=F
 DIIS: error= 2.29D-05 at cycle   8 NSaved=   8.
 NSaved= 8 IEnMin= 8 EnMin= -152.560925019638     IErMin= 8 ErrMin= 2.29D-05
 ErrMax= 2.29D-05 EMaxC= 1.00D-01 BMatC= 3.45D-08 BMatP= 4.19D-07
 IDIUse=1 WtCom= 1.00D+00 WtEn= 0.00D+00
 Coeff-Com:  0.105D-04 0.376D-03 0.105D-02-0.590D-02 0.177D-01-0.345D-02
 Coeff-Com: -0.182D+00 0.117D+01
 Coeff:      0.105D-04 0.376D-03 0.105D-02-0.590D-02 0.177D-01-0.345D-02
 Coeff:     -0.182D+00 0.117D+01
 Gap=     0.869 Goal=   None    Shift=    0.000
 Gap=     0.596 Goal=   None    Shift=    0.000
 RMSDP=1.01D-05 MaxDP=7.67D-05 DE=-4.04D-07 OVMax= 0.00D+00

 Cycle   9  Pass 1  IDiag  1:
 E= -152.560925048568     Delta-E=       -0.000000028930 Rises=F Damp=F
 DIIS: error= 1.22D-05 at cycle   9 NSaved=   9.
 NSaved= 9 IEnMin= 9 EnMin= -152.560925048568     IErMin= 9 ErrMin= 1.22D-05
 ErrMax= 1.22D-05 EMaxC= 1.00D-01 BMatC= 1.12D-08 BMatP= 3.45D-08
 IDIUse=1 WtCom= 1.00D+00 WtEn= 0.00D+00
 Coeff-Com: -0.131D-03 0.108D-03 0.640D-02-0.118D-01-0.548D-01 0.208D+00
 Coeff-Com: -0.312D+00-0.769D+00 0.193D+01
 Coeff:     -0.131D-03 0.108D-03 0.640D-02-0.118D-01-0.548D-01 0.208D+00
 Coeff:     -0.312D+00-0.769D+00 0.193D+01
 Gap=     0.869 Goal=   None    Shift=    0.000
 Gap=     0.596 Goal=   None    Shift=    0.000
 RMSDP=1.05D-05 MaxDP=6.87D-05 DE=-2.89D-08 OVMax= 0.00D+00

 Cycle  10  Pass 1  IDiag  1:
 E= -152.560925062817     Delta-E=       -0.000000014250 Rises=F Damp=F
 DIIS: error= 2.84D-06 at cycle  10 NSaved=  10.
 NSaved=10 IEnMin=10 EnMin= -152.560925062817     IErMin=10 ErrMin= 2.84D-06
 ErrMax= 2.84D-06 EMaxC= 1.00D-01 BMatC= 7.77D-10 BMatP= 1.12D-08
 IDIUse=1 WtCom= 1.00D+00 WtEn= 0.00D+00
 Coeff-Com:  0.567D-04-0.114D-03-0.301D-02 0.613D-02 0.219D-01-0.921D-01
 Coeff-Com:  0.163D+00 0.182D+00-0.862D+00 0.158D+01
 Coeff:      0.567D-04-0.114D-03-0.301D-02 0.613D-02 0.219D-01-0.921D-01
 Coeff:      0.163D+00 0.182D+00-0.862D+00 0.158D+01
 Gap=     0.869 Goal=   None    Shift=    0.000
 Gap=     0.596 Goal=   None    Shift=    0.000
 RMSDP=3.08D-06 MaxDP=1.73D-05 DE=-1.42D-08 OVMax= 0.00D+00

 Cycle  11  Pass 1  IDiag  1:
 E= -152.560925063793     Delta-E=       -0.000000000975 Rises=F Damp=F
 DIIS: error= 4.01D-07 at cycle  11 NSaved=  11.
 NSaved=11 IEnMin=11 EnMin= -152.560925063793     IErMin=11 ErrMin= 4.01D-07
 ErrMax= 4.01D-07 EMaxC= 1.00D-01 BMatC= 3.61D-11 BMatP= 7.77D-10
 IDIUse=1 WtCom= 1.00D+00 WtEn= 0.00D+00
 Coeff-Com: -0.292D-04 0.614D-04 0.158D-02-0.317D-02-0.113D-01 0.479D-01
 Coeff-Com: -0.874D-01-0.778D-01 0.447D+00-0.966D+00 0.165D+01
 Coeff:     -0.292D-04 0.614D-04 0.158D-02-0.317D-02-0.113D-01 0.479D-01
 Coeff:     -0.874D-01-0.778D-01 0.447D+00-0.966D+00 0.165D+01
 Gap=     0.869 Goal=   None    Shift=    0.000
 Gap=     0.596 Goal=   None    Shift=    0.000
 RMSDP=4.46D-07 MaxDP=2.80D-06 DE=-9.75D-10 OVMax= 0.00D+00

 Cycle  12  Pass 1  IDiag  1:
 E= -152.560925063827     Delta-E=       -0.000000000034 Rises=F Damp=F
 DIIS: error= 1.41D-07 at cycle  12 NSaved=  12.
 NSaved=12 IEnMin=12 EnMin= -152.560925063827     IErMin=12 ErrMin= 1.41D-07
 ErrMax= 1.41D-07 EMaxC= 1.00D-01 BMatC= 3.75D-12 BMatP= 3.61D-11
 IDIUse=1 WtCom= 1.00D+00 WtEn= 0.00D+00
 Coeff-Com:  0.104D-04-0.208D-04-0.576D-03 0.111D-02 0.415D-02-0.174D-01
 Coeff-Com:  0.327D-01 0.239D-01-0.162D+00 0.382D+00-0.942D+00 0.168D+01
 Coeff:      0.104D-04-0.208D-04-0.576D-03 0.111D-02 0.415D-02-0.174D-01
 Coeff:      0.327D-01 0.239D-01-0.162D+00 0.382D+00-0.942D+00 0.168D+01
 Gap=     0.869 Goal=   None    Shift=    0.000
 Gap=     0.596 Goal=   None    Shift=    0.000
 RMSDP=1.69D-07 MaxDP=1.29D-06 DE=-3.38D-11 OVMax= 0.00D+00

 Cycle  13  Pass 1  IDiag  1:
 E= -152.560925063831     Delta-E=       -0.000000000004 Rises=F Damp=F
 DIIS: error= 4.32D-08 at cycle  13 NSaved=  13.
 NSaved=13 IEnMin=13 EnMin= -152.560925063831     IErMin=13 ErrMin= 4.32D-08
 ErrMax= 4.32D-08 EMaxC= 1.00D-01 BMatC= 2.48D-13 BMatP= 3.75D-12
 IDIUse=1 WtCom= 1.00D+00 WtEn= 0.00D+00
 Coeff-Com: -0.241D-05 0.462D-05 0.137D-03-0.247D-03-0.101D-02 0.415D-02
 Coeff-Com: -0.805D-02-0.435D-02 0.386D-01-0.980D-01 0.295D+00-0.730D+00
 Coeff-Com:  0.150D+01
 Coeff:     -0.241D-05 0.462D-05 0.137D-03-0.247D-03-0.101D-02 0.415D-02
 Coeff:     -0.805D-02-0.435D-02 0.386D-01-0.980D-01 0.295D+00-0.730D+00
 Coeff:      0.150D+01
 Gap=     0.869 Goal=   None    Shift=    0.000
 Gap=     0.596 Goal=   None    Shift=    0.000
 RMSDP=4.00D-08 MaxDP=3.78D-07 DE=-4.09D-12 OVMax= 0.00D+00

 Cycle  14  Pass 1  IDiag  1:
 E= -152.560925063831     Delta-E=        0.000000000000 Rises=F Damp=F
 DIIS: error= 1.55D-08 at cycle  14 NSaved=  14.
 NSaved=14 IEnMin=13 EnMin= -152.560925063831     IErMin=14 ErrMin= 1.55D-08
 ErrMax= 1.55D-08 EMaxC= 1.00D-01 BMatC= 3.98D-14 BMatP= 2.48D-13
 IDIUse=1 WtCom= 1.00D+00 WtEn= 0.00D+00
 Coeff-Com:  0.114D-05-0.206D-05-0.681D-04 0.112D-03 0.508D-03-0.204D-02
 Coeff-Com:  0.412D-02 0.151D-02-0.192D-01 0.514D-01-0.173D+00 0.491D+00
 Coeff-Com: -0.137D+01 0.201D+01
 Coeff:      0.114D-05-0.206D-05-0.681D-04 0.112D-03 0.508D-03-0.204D-02
 Coeff:      0.412D-02 0.151D-02-0.192D-01 0.514D-01-0.173D+00 0.491D+00
 Coeff:     -0.137D+01 0.201D+01
 Gap=     0.869 Goal=   None    Shift=    0.000
 Gap=     0.596 Goal=   None    Shift=    0.000
 RMSDP=1.92D-08 MaxDP=1.85D-07 DE= 0.00D+00 OVMax= 0.00D+00

 Cycle  15  Pass 1  IDiag  1:
 E= -152.560925063831     Delta-E=        0.000000000000 Rises=F Damp=F
 DIIS: error= 3.87D-09 at cycle  15 NSaved=  15.
 NSaved=15 IEnMin=15 EnMin= -152.560925063831     IErMin=15 ErrMin= 3.87D-09
 ErrMax= 3.87D-09 EMaxC= 1.00D-01 BMatC= 2.17D-15 BMatP= 3.98D-14
 IDIUse=1 WtCom= 1.00D+00 WtEn= 0.00D+00
 Coeff-Com: -0.209D-06 0.318D-06 0.134D-04-0.177D-04-0.104D-03 0.395D-03
 Coeff-Com: -0.868D-03-0.615D-04 0.391D-02-0.115D-01 0.454D-01-0.147D+00
 Coeff-Com:  0.473D+00-0.909D+00 0.155D+01
 Coeff:     -0.209D-06 0.318D-06 0.134D-04-0.177D-04-0.104D-03 0.395D-03
 Coeff:     -0.868D-03-0.615D-04 0.391D-02-0.115D-01 0.454D-01-0.147D+00
 Coeff:      0.473D+00-0.909D+00 0.155D+01
 Gap=     0.869 Goal=   None    Shift=    0.000
 Gap=     0.596 Goal=   None    Shift=    0.000
 RMSDP=4.44D-09 MaxDP=3.93D-08 DE=-5.68D-14 OVMax= 0.00D+00

 SCF Done:  E(UHF) =  -152.560925064     A.U. after   15 cycles
             Convg  =    0.4441D-08             -V/T =  2.0056
 <Sx>= 0.0000 <Sy>= 0.0000 <Sz>= 0.5000 <S**2>= 0.7899 S= 0.5198
 <L.S>= 0.000000000000E+00
 KE= 1.517154359150D+02 PE=-5.317907516259D+02 EE= 1.408698786175D+02
 Annihilation of the first spin contaminant:
 S**2 before annihilation     0.7899,   after     0.7505
 Leave Link  502 at Wed Jan 23 23:55:44 2019, MaxMem=  134217728 cpu:       0.1
 (Enter /home/programs/G09_64/g09/l801.exe)
 Range of M.O.s used for correlation:     1    22
 NBasis=    22 NAE=    14 NBE=    13 NFC=     0 NFV=     0
 NROrb=     22 NOA=    14 NOB=    13 NVA=     8 NVB=     9
 Leave Link  801 at Wed Jan 23 23:55:44 2019, MaxMem=  134217728 cpu:       0.0
 (Enter /home/programs/G09_64/g09/l1101.exe)
 Using compressed storage, NAtomX=    10.
 Will process  11 centers per pass.
 Leave Link 1101 at Wed Jan 23 23:55:44 2019, MaxMem=  134217728 cpu:       0.1
 (Enter /home/programs/G09_64/g09/l1102.exe)
 Symmetrizing basis deriv contribution to polar:
 IMax=3 JMax=2 DiffMx= 0.00D+00
 Leave Link 1102 at Wed Jan 23 23:55:44 2019, MaxMem=  134217728 cpu:       0.0
 (Enter /home/programs/G09_64/g09/l1110.exe)
 Forming Gx(P) for the SCF density, NAtomX=    10.
 Integral derivatives from FoFDir/FoFCou, PRISM(SPDF).
 Do as many integral derivatives as possible in FoFDir.
 G2DrvN: MDV=     134217544.
 G2DrvN: will do    11 centers at a time, making    1 passes doing MaxLOS=1.
 Calling FoFCou, ICntrl=  3107 FMM=F I1Cent=   0 AccDes= 0.00D+00.
 FoFCou: FMM=F IPFlag=           0 FMFlag=      100000 FMFlg1=           0
         NFxFlg=           0 DoJE=F BraDBF=F KetDBF=F FulRan=T
         Omega=  0.000000  0.000000  1.000000  0.000000  0.000000 ICntrl=    3107 IOpCl=  1
         NMat0=    1 NMatS0=    1 NMatT0=    0 NMatD0=    1 NMtDS0=    0 NMtDT0=    0
         I1Cent=           0 NGrid=           0.
 Symmetry not used in FoFCou.
 FoFDir/FoFCou used for L=0 through L=1.
 End of G2Drv Frequency-dependent properties file   721 does not exist.
 End of G2Drv Frequency-dependent properties file   722 does not exist.
 Leave Link 1110 at Wed Jan 23 23:55:44 2019, MaxMem=  134217728 cpu:       0.2
 (Enter /home/programs/G09_64/g09/l1002.exe)
 Minotr:  UHF open shell wavefunction.
          IDoAtm=1111111111
          Direct CPHF calculation.
          Differentiating once with respect to nuclear coordinates.
          Requested convergence is 1.0D-06 RMS, and 1.0D-05 maximum.
          Secondary convergence is 1.0D-12 RMS, and 1.0D-12 maximum.
          NewPWx=T KeepS1=F KeepF1=F KeepIn=T MapXYZ=F SortEE=F KeepMc=T.
          MDV=     134217624 using IRadAn=       2.
          Keep R1 and R2 ints in memory in canonical form, NReq=864982.
 Symmetry not used in FoFDir.
 MinBra= 0 MaxBra= 1 Meth= 1.
 IRaf=       0 NMat=   1 IRICut=       1 DoRegI=T DoRafI=F ISym2E= 0 JSym2E=0.
          Solving linear equations simultaneously, MaxMat=       0.
          There are    33 degrees of freedom in the 1st order CPHF.  IDoFFX=5.
     27 vectors produced by pass  0 Test12= 6.94D-12 3.03D-07 XBig12= 6.05D-02 1.51D-01.
 AX will form    27 AO Fock derivatives at one time.
     27 vectors produced by pass  1 Test12= 6.94D-12 3.03D-07 XBig12= 6.19D-04 5.44D-03.
     27 vectors produced by pass  2 Test12= 6.94D-12 3.03D-07 XBig12= 4.53D-06 4.81D-04.
     27 vectors produced by pass  3 Test12= 6.94D-12 3.03D-07 XBig12= 4.36D-08 5.40D-05.
     11 vectors produced by pass  4 Test12= 6.94D-12 3.03D-07 XBig12= 2.01D-10 3.40D-06.
 Inverted reduced A of dimension   119 with in-core refinement.
 End of Minotr Frequency-dependent properties file   721 does not exist.
 End of Minotr Frequency-dependent properties file   722 does not exist.
 Leave Link 1002 at Wed Jan 23 23:55:45 2019, MaxMem=  134217728 cpu:       0.1
 (Enter /home/programs/G09_64/g09/l601.exe)
 Copying SCF densities to generalized density rwf, IOpCl= 1 IROHF=0.

 **********************************************************************

            Population analysis using the SCF density.

 **********************************************************************

 Alpha  occ. eigenvalues --  -20.25344 -11.09845 -11.04432  -1.29383  -0.99207
 Alpha  occ. eigenvalues --   -0.81441  -0.64888  -0.59133  -0.57478  -0.56026
 Alpha  occ. eigenvalues --   -0.49190  -0.41228  -0.36319  -0.29842
 Alpha virt. eigenvalues --    0.57073   0.62122   0.65791   0.72181   0.73812
 Alpha virt. eigenvalues --    0.75773   0.79073   0.79920
  Beta  occ. eigenvalues --  -20.25331 -11.10090 -11.01966  -1.29301  -0.94965
  Beta  occ. eigenvalues --   -0.78474  -0.62060  -0.58082  -0.55682  -0.49704
  Beta  occ. eigenvalues --   -0.48243  -0.40524  -0.35377
  Beta virt. eigenvalues --    0.24251   0.57258   0.63231   0.68223   0.74182
  Beta virt. eigenvalues --    0.76023   0.76984   0.81040   0.87817
          Condensed to atoms (all electrons):
              1          2          3          4          5          6
     1  C    4.988502   0.367990  -0.018514   0.122255   0.382563   0.382055
     2  C    0.367990   4.695391   0.273652  -0.010418  -0.019436  -0.022181
     3  O   -0.018514   0.273652   7.832717  -0.000276   0.000565  -0.001132
     4  H    0.122255  -0.010418  -0.000276   0.623939  -0.009859  -0.010274
     5  H    0.382563  -0.019436   0.000565  -0.009859   0.605965  -0.021854
     6  H    0.382055  -0.022181  -0.001132  -0.010274  -0.021854   0.614330
     7  H   -0.024681   0.381336  -0.020675  -0.002136  -0.001474   0.001800
     8  H   -0.027539   0.372141  -0.017322   0.000818  -0.001271  -0.000877
     9  H   -0.002902  -0.043581   0.260625  -0.000022  -0.000015   0.000830
    10  H   -0.040229  -0.000908   0.000054   0.256465  -0.000826  -0.000782
              7          8          9         10
     1  C   -0.024681  -0.027539  -0.002902  -0.040229
     2  C    0.381336   0.372141  -0.043581  -0.000908
     3  O   -0.020675  -0.017322   0.260625   0.000054
     4  H   -0.002136   0.000818  -0.000022   0.256465
     5  H   -0.001474  -0.001271  -0.000015  -0.000826
     6  H    0.001800  -0.000877   0.000830  -0.000782
     7  H    0.612458  -0.024676   0.003905   0.000125
     8  H   -0.024676   0.649729  -0.002831  -0.000010
     9  H    0.003905  -0.002831   0.595139  -0.000006
    10  H    0.000125  -0.000010  -0.000006   0.820894
 Mulliken atomic charges:
              1
     1  C   -0.129500
     2  C    0.006016
     3  O   -0.309694
     4  H    0.029510
     5  H    0.065641
     6  H    0.058085
     7  H    0.074018
     8  H    0.051839
     9  H    0.188860
    10  H   -0.034775
 Sum of Mulliken atomic charges =   0.00000
 Mulliken charges with hydrogens summed into heavy atoms:
              1
     1  C   -0.011039
     2  C    0.131873
     3  O   -0.120834
 Sum of Mulliken charges with hydrogens summed into heavy atoms =   0.00000
          Atomic-Atomic Spin Densities.
              1          2          3          4          5          6
     1  C    0.987476  -0.017285  -0.000944   0.012337  -0.010672  -0.011067
     2  C   -0.017285  -0.088649   0.003667   0.002069   0.001194   0.001171
     3  O   -0.000944   0.003667   0.004222   0.000048   0.000009   0.000133
     4  H    0.012337   0.002069   0.000048  -0.258299   0.002698   0.002750
     5  H   -0.010672   0.001194   0.000009   0.002698  -0.054032   0.001489
     6  H   -0.011067   0.001171   0.000133   0.002750   0.001489  -0.051812
     7  H   -0.003975   0.003245   0.000147   0.000136   0.000364   0.000108
     8  H   -0.007004   0.002092  -0.000991  -0.000074  -0.000468  -0.000453
     9  H   -0.000085   0.000366  -0.000035  -0.000010   0.000002   0.000009
    10  H   -0.054904   0.001324   0.000027  -0.010337   0.001272   0.001376
              7          8          9         10
     1  C   -0.003975  -0.007004  -0.000085  -0.054904
     2  C    0.003245   0.002092   0.000366   0.001324
     3  O    0.000147  -0.000991  -0.000035   0.000027
     4  H    0.000136  -0.000074  -0.000010  -0.010337
     5  H    0.000364  -0.000468   0.000002   0.001272
     6  H    0.000108  -0.000453   0.000009   0.001376
     7  H    0.016664  -0.003143   0.000005   0.000665
     8  H   -0.003143   0.046516  -0.000022  -0.000121
     9  H    0.000005  -0.000022  -0.000822   0.000000
    10  H    0.000665  -0.000121   0.000000   0.564514
 Mulliken atomic spin densities:
              1
     1  C    0.893877
     2  C   -0.090808
     3  O    0.006281
     4  H   -0.248683
     5  H   -0.058143
     6  H   -0.056296
     7  H    0.014216
     8  H    0.036332
     9  H   -0.000592
    10  H    0.503816
 Sum of Mulliken atomic spin densities =   1.00000
 APT atomic charges:
              1
     1  C   -0.736674
     2  C   -0.513893
     3  O   -0.560856
     4  H   -0.227933
     5  H    0.429390
     6  H    0.307560
     7  H    0.331383
     8  H    0.318208
     9  H    0.398258
    10  H    0.254556
 Sum of APT charges=   0.00000
 APT Atomic charges with hydrogens summed into heavy atoms:
              1
     1  C    0.026899
     2  C    0.135699
     3  O   -0.162597
     4  H    0.000000
     5  H    0.000000
     6  H    0.000000
     7  H    0.000000
     8  H    0.000000
     9  H    0.000000
    10  H    0.000000
 Sum of APT charges=   0.00000
 Electronic spatial extent (au):  <R**2>=            220.0227
 Charge=              0.0000 electrons
 Dipole moment (field-independent basis, Debye):
    X=             -0.7661    Y=             -1.0155    Z=             -1.2724  Tot=              1.7992
 Quadrupole moment (field-independent basis, Debye-Ang):
   XX=            -21.2523   YY=            -20.1474   ZZ=            -17.8738
   XY=              0.2711   XZ=             -1.2630   YZ=             -1.0459
 Traceless Quadrupole moment (field-independent basis, Debye-Ang):
   XX=             -1.4944   YY=             -0.3896   ZZ=              1.8840
   XY=              0.2711   XZ=             -1.2630   YZ=             -1.0459
 Octapole moment (field-independent basis, Debye-Ang**2):
  XXX=             11.1913  YYY=             -1.2541  ZZZ=             -2.5949  XYY=              4.9752
  XXY=             -1.9082  XXZ=             -2.7732  XZZ=              6.0449  YZZ=              0.5147
  YYZ=             -1.0973  XYZ=             -0.2573
 Hexadecapole moment (field-independent basis, Debye-Ang**3):
 XXXX=           -156.7991 YYYY=            -67.1498 ZZZZ=            -39.3274 XXXY=              8.3122
 XXXZ=             -1.8782 YYYX=              5.7255 YYYZ=             -0.5580 ZZZX=              0.0407
 ZZZY=             -2.4577 XXYY=            -37.6897 XXZZ=            -31.3887 YYZZ=            -18.1034
 XXYZ=             -2.1143 YYXZ=             -0.3037 ZZXY=              2.1319
 N-N= 8.664451202956D+01 E-N=-7.928198422670D+02  KE= 2.268136040536D+02
  Exact polarizability:   0.000   0.000   0.000   0.000   0.000   0.000
 Approx polarizability:   9.696   0.262  13.416  -1.337   1.604  12.992
                          Isotropic Fermi Contact Couplings
        Atom                 a.u.       MegaHertz       Gauss      10(-4) cm-1
     1  C(13)              0.27609     310.38242     110.75216     103.53243
     2  C(13)             -0.03794     -42.64942     -15.21837     -14.22632
     3  O(17)             -0.00066       0.39950       0.14255       0.13326
     4  H(1)              -0.09843    -439.98483    -156.99752    -146.76314
     5  H(1)              -0.02053     -91.74490     -32.73686     -30.60281
     6  H(1)              -0.01962     -87.68518     -31.28825     -29.24863
     7  H(1)               0.00635      28.38501      10.12848       9.46822
     8  H(1)               0.01760      78.66434      28.06939      26.23960
     9  H(1)              -0.00032      -1.41510      -0.50494      -0.47203
    10  H(1)               0.21469     959.65351     342.42822     320.10596
 --------------------------------------------------------
       Center         ----  Spin Dipole Couplings  ----
                      3XX-RR        3YY-RR        3ZZ-RR
 --------------------------------------------------------
     1   Atom       -0.375355      0.459450     -0.084095
     2   Atom        0.015734     -0.007389     -0.008345
     3   Atom        0.010046      0.002402     -0.012448
     4   Atom       -0.128051      0.156731     -0.028680
     5   Atom        0.032275      0.011244     -0.043519
     6   Atom       -0.063443     -0.019686      0.083129
     7   Atom        0.004586     -0.000413     -0.004174
     8   Atom        0.009162     -0.003523     -0.005638
     9   Atom        0.008016     -0.004762     -0.003253
    10   Atom        0.021334     -0.024047      0.002714
 --------------------------------------------------------
                        XY            XZ            YZ
 --------------------------------------------------------
     1   Atom       -0.162636     -0.102073      0.526195
     2   Atom       -0.006675      0.000895     -0.004640
     3   Atom        0.021374     -0.000396      0.000552
     4   Atom       -0.066068     -0.040856      0.184283
     5   Atom        0.062291     -0.034952     -0.004995
     6   Atom       -0.006640      0.000970     -0.030466
     7   Atom       -0.007509      0.013214     -0.004527
     8   Atom       -0.009933      0.002394     -0.004972
     9   Atom        0.001530     -0.004825      0.000241
    10   Atom        0.010102      0.006740     -0.031520
 --------------------------------------------------------


 ---------------------------------------------------------------------------------
              Anisotropic Spin Dipole Couplings in Principal Axis System
 ---------------------------------------------------------------------------------

       Atom             a.u.   MegaHertz   Gauss  10(-4) cm-1        Axes

              Baa    -0.4082   -54.778   -19.546   -18.272  0.8093 -0.1861  0.5571
     1 C(13)  Bbb    -0.4028   -54.049   -19.286   -18.029 -0.5652 -0.5048  0.6525
              Bcc     0.8110   108.826    38.832    36.301 -0.1598  0.8429  0.5138
 
              Baa    -0.0131    -1.757    -0.627    -0.586  0.1460  0.7213  0.6770
     2 C(13)  Bbb    -0.0046    -0.617    -0.220    -0.206 -0.2416 -0.6377  0.7315
              Bcc     0.0177     2.374     0.847     0.792  0.9593 -0.2704  0.0812
 
              Baa    -0.0156     1.131     0.404     0.377 -0.6276  0.7502 -0.2081
     3 O(17)  Bbb    -0.0123     0.890     0.318     0.297 -0.1345  0.1588  0.9781
              Bcc     0.0279    -2.022    -0.721    -0.674  0.7668  0.6419  0.0013
 
              Baa    -0.1427   -76.134   -27.166   -25.395  0.9507  0.0192  0.3096
     4 H(1)   Bbb    -0.1422   -75.888   -27.079   -25.314 -0.2491 -0.5475  0.7989
              Bcc     0.2849   152.022    54.245    50.709 -0.1849  0.8366  0.5157
 
              Baa    -0.0646   -34.488   -12.306   -11.504  0.5181 -0.3747  0.7688
     5 H(1)   Bbb    -0.0270   -14.430    -5.149    -4.813 -0.3833  0.7019  0.6004
              Bcc     0.0917    48.918    17.455    16.317  0.7646  0.6058 -0.2200
 
              Baa    -0.0645   -34.428   -12.285   -11.484  0.9860  0.1647  0.0275
     6 H(1)   Bbb    -0.0270   -14.406    -5.140    -4.805 -0.1661  0.9500  0.2643
              Bcc     0.0915    48.833    17.425    16.289  0.0174 -0.2651  0.9641
 
              Baa    -0.0138    -7.344    -2.620    -2.450 -0.6012 -0.0682  0.7962
     7 H(1)   Bbb    -0.0045    -2.381    -0.850    -0.794  0.3026  0.9027  0.3058
              Bcc     0.0182     9.725     3.470     3.244  0.7396 -0.4247  0.5221
 
              Baa    -0.0111    -5.947    -2.122    -1.984  0.3101  0.7688  0.5592
     8 H(1)   Bbb    -0.0044    -2.362    -0.843    -0.788 -0.4383 -0.4063  0.8017
              Bcc     0.0156     8.309     2.965     2.772  0.8436 -0.4937  0.2110
 
              Baa    -0.0057    -3.051    -1.089    -1.018  0.3117 -0.6685  0.6753
     9 H(1)   Bbb    -0.0042    -2.244    -0.801    -0.748  0.1659  0.7380  0.6540
              Bcc     0.0099     5.295     1.889     1.766  0.9356  0.0919 -0.3409
 
              Baa    -0.0471   -25.112    -8.961    -8.377 -0.1748  0.8210  0.5435
    10 H(1)   Bbb     0.0235    12.523     4.469     4.177  0.9069  0.3492 -0.2358
              Bcc     0.0236    12.589     4.492     4.199  0.3834 -0.4517  0.8056
 

 ---------------------------------------------------------------------------------

 No NMR shielding tensors so no spin-rotation constants.
 Leave Link  601 at Wed Jan 23 23:55:45 2019, MaxMem=  134217728 cpu:       0.2
 (Enter /home/programs/G09_64/g09/l701.exe)
 Compute integral second derivatives.
 ... and contract with generalized density number  0.
 Leave Link  701 at Wed Jan 23 23:55:45 2019, MaxMem=  134217728 cpu:       0.2
 (Enter /home/programs/G09_64/g09/l702.exe)
 L702 exits ... SP integral derivatives will be done elsewhere.
 Leave Link  702 at Wed Jan 23 23:55:45 2019, MaxMem=  134217728 cpu:       0.0
 (Enter /home/programs/G09_64/g09/l703.exe)
 Compute integral second derivatives, UseDBF=F ICtDFT=           0.
 Integral derivatives from FoFDir, PRISM(SPDF).
 Calling FoFJK, ICntrl=    100147 FMM=F ISym2X=0 I1Cent= 0 IOpClX= 1 NMat=1 NMatS=1 NMatT=0.
 FoFCou: FMM=F IPFlag=           0 FMFlag=      100000 FMFlg1=         800
         NFxFlg=           0 DoJE=F BraDBF=F KetDBF=F FulRan=T
         Omega=  0.000000  0.000000  1.000000  0.000000  0.000000 ICntrl=  100147 IOpCl=  1
         NMat0=    1 NMatS0=    1 NMatT0=    0 NMatD0=    1 NMtDS0=    0 NMtDT0=    0
         I1Cent=           0 NGrid=           0.
 Symmetry not used in FoFCou.
 Leave Link  703 at Wed Jan 23 23:55:45 2019, MaxMem=  134217728 cpu:       0.2
 (Enter /home/programs/G09_64/g09/l716.exe)
 Dipole        =-3.01414620D-01-3.99532356D-01-5.00611791D-01
 Polarizability= 0.00000000D+00 0.00000000D+00 0.00000000D+00
                 0.00000000D+00 0.00000000D+00 0.00000000D+00
 -------------------------------------------------------------------
 Center     Atomic                   Forces (Hartrees/Bohr)
 Number     Number              X              Y              Z
 -------------------------------------------------------------------
      1        6          -0.030588484    0.006186352   -0.011308819
      2        6           0.017483153   -0.020045755   -0.001159255
      3        8           0.024701945    0.016397897    0.048199804
      4        1          -0.007521484    0.033930060    0.022166207
      5        1          -0.000253718   -0.002294286   -0.001116835
      6        1           0.000629963   -0.002249771   -0.001777746
      7        1          -0.001983659   -0.000949426    0.006663190
      8        1          -0.000960787   -0.004872745   -0.001392541
      9        1          -0.006515183   -0.002170023   -0.043879820
     10        1           0.005008253   -0.023932303   -0.016394185
 -------------------------------------------------------------------
 Cartesian Forces:  Max     0.048199804 RMS     0.017927958
 Force constants in Cartesian coordinates: 
                1             2             3             4             5 
      1  0.779565D+00
      2  0.117318D+00  0.356044D+00
      3  0.403344D-01 -0.284222D+00  0.658746D+00
      4 -0.310522D+00  0.756994D-01 -0.849603D-01  0.770245D+00
      5  0.946656D-01 -0.115207D+00  0.567117D-01  0.206034D-01  0.789417D+00
      6 -0.690470D-01  0.477267D-01 -0.140271D+00 -0.949947D-03 -0.119910D-01
      7 -0.517233D-01 -0.355106D-01  0.141171D-01 -0.275473D+00 -0.184375D+00
      8 -0.610479D-02  0.710434D-02 -0.119369D-02 -0.186242D+00 -0.215785D+00
      9 -0.938774D-02 -0.846725D-02  0.885973D-02  0.903918D-01  0.790393D-01
     10 -0.206386D-01 -0.413286D-01 -0.222221D-01 -0.612119D-02  0.201868D-01
     11 -0.462125D-01  0.146368D+00  0.101768D+00  0.843865D-02 -0.249585D-01
     12 -0.274075D-01  0.111172D+00  0.306837D-01  0.205720D-02 -0.593652D-02
     13 -0.311360D+00 -0.181762D+00  0.719293D-01 -0.179770D-01 -0.250465D-01
     14 -0.196652D+00 -0.183550D+00  0.819401D-01  0.167908D-01  0.130233D-01
     15  0.631914D-01  0.720347D-01 -0.887609D-01 -0.938545D-02 -0.989083D-02
     16 -0.790811D-01 -0.586767D-02 -0.792115D-02  0.450358D-02  0.907155D-02
     17 -0.559822D-02 -0.736263D-01  0.116192D+00 -0.159319D-02 -0.156961D-02
     18 -0.953173D-02  0.134873D+00 -0.428824D+00  0.394097D-02 -0.557380D-03
     19  0.223775D-02  0.575954D-02 -0.426453D-01 -0.712567D-01  0.138086D-02
     20  0.106375D-02 -0.119309D-02  0.172628D-01  0.181669D-02 -0.790139D-01
     21  0.105216D-02  0.936644D-03 -0.628554D-02  0.157216D-02  0.250058D-01
     22 -0.117530D-01  0.359473D-01  0.118754D-01 -0.835494D-01  0.714267D-01
     23  0.688288D-02 -0.957468D-02 -0.613460D-02  0.687983D-01 -0.361103D+00
     24 -0.815405D-02  0.156049D-01  0.742464D-02  0.254483D-01 -0.116743D+00
     25  0.265595D-02  0.437147D-03  0.211120D-02 -0.109169D-01 -0.619109D-02
     26  0.224792D-02  0.234618D-02 -0.218186D-02 -0.411400D-03 -0.124822D-01
     27 -0.171130D-02 -0.231002D-02  0.237241D-02 -0.259720D-01 -0.211557D-01
     28  0.619742D-03  0.293068D-01  0.173814D-01  0.106738D-02 -0.172232D-02
     29  0.323891D-01 -0.128711D+00 -0.801417D-01 -0.390051D-02  0.768040D-02
     30  0.206613D-01 -0.873478D-01 -0.439446D-01 -0.214271D-02  0.551782D-02
                6             7             8             9            10 
      6  0.888006D+00
      7  0.365651D-02  0.354262D+00
      8  0.105193D-01  0.279671D+00  0.255541D+00
      9 -0.146980D+00 -0.921215D-01 -0.141627D+00  0.889809D+00
     10  0.907556D-02  0.201821D-02 -0.527313D-03 -0.276122D-04  0.610266D-01
     11 -0.986148D-02 -0.226448D-02  0.125647D-02  0.383778D-03  0.402642D-01
     12 -0.153755D-02 -0.752639D-03  0.523026D-03  0.107110D-04  0.266708D-01
     13  0.113262D-01 -0.598936D-02  0.191345D-02 -0.251101D-02  0.197531D-02
     14 -0.505402D-02  0.428775D-02  0.207416D-03  0.149832D-02 -0.829160D-02
     15  0.573487D-02 -0.403858D-02  0.418419D-03 -0.657559D-04 -0.512937D-02
     16 -0.410191D-01  0.425457D-02  0.703259D-03  0.740570D-03 -0.491216D-03
     17  0.156502D-01 -0.785231D-03 -0.102133D-04 -0.111452D-02  0.408319D-02
     18 -0.405235D-02  0.130470D-02 -0.367740D-03  0.921101D-03  0.148289D-02
     19 -0.478834D-02 -0.148628D-02 -0.520321D-02  0.417705D-01  0.832414D-03
     20  0.222768D-01 -0.256303D-02 -0.189845D-02  0.357099D-01 -0.232873D-03
     21 -0.461682D+00  0.571809D-02  0.531742D-02 -0.562450D-02  0.761911D-03
     22  0.308884D-01 -0.341950D-02 -0.457795D-01 -0.111812D-01 -0.296484D-02
     23 -0.122023D+00 -0.137121D-01 -0.334782D-01 -0.826884D-02  0.765329D-04
     24 -0.133827D+00  0.171771D-02  0.129297D-01  0.960142D-02 -0.119087D-02
     25  0.611258D-01 -0.223245D-01 -0.386192D-01 -0.176414D-01 -0.192565D-03
     26  0.503764D-01 -0.453193D-01 -0.128467D-01  0.429885D-01  0.177603D-03
     27 -0.717283D-02  0.699806D-01  0.113730D+00 -0.756484D+00 -0.561814D-04
     28 -0.268002D-03 -0.118833D-03  0.188040D-03 -0.324691D-04 -0.354441D-01
     29  0.238015D-02  0.570501D-03 -0.903296D-04 -0.141861D-03 -0.144078D-01
     30  0.178196D-02  0.417975D-03 -0.248535D-03 -0.479852D-04 -0.936496D-02
               11            12            13            14            15 
     11 -0.115416D+00
     12 -0.114570D+00 -0.530794D-03
     13  0.912050D-02  0.319609D-02  0.321246D+00
     14 -0.216207D-01 -0.450761D-02  0.192340D+00  0.186219D+00
     15 -0.169166D-01 -0.452344D-02 -0.765176D-01 -0.733074D-01  0.838970D-01
     16  0.180034D-02  0.458996D-02  0.673074D-02 -0.552202D-02  0.324970D-01
     17 -0.134172D-01 -0.264383D-01  0.460743D-02 -0.139639D-02  0.233737D-01
     18 -0.301133D-02 -0.108678D-01 -0.590076D-02 -0.429837D-02 -0.725519D-05
     19 -0.936857D-03 -0.547606D-03  0.170786D-02 -0.544407D-03  0.100711D-02
     20  0.401101D-03  0.636841D-03 -0.723129D-04  0.131942D-03 -0.601266D-03
     21 -0.138633D-02 -0.967814D-04  0.200122D-03 -0.271066D-03  0.805169D-03
     22  0.365016D-02  0.394346D-03  0.245898D-02 -0.138558D-02 -0.159200D-03
     23  0.160676D-02  0.112189D-02 -0.147512D-03  0.806546D-03  0.390911D-03
     24  0.134922D-02  0.778712D-03  0.498794D-03 -0.260046D-03 -0.553101D-05
     25 -0.151554D-03 -0.282230D-04  0.458908D-03  0.902161D-05 -0.306152D-03
     26 -0.232322D-03 -0.232247D-03  0.574387D-03 -0.326857D-03  0.173342D-03
     27  0.204293D-03 -0.142934D-05 -0.722103D-03  0.171392D-03  0.810209D-04
     28 -0.137084D-01 -0.817241D-02  0.748949D-03 -0.103207D-02 -0.115912D-02
     29  0.260127D-01  0.382310D-01 -0.152790D-02  0.650550D-02  0.432499D-02
     30  0.420403D-01 -0.139153D-01 -0.149899D-02  0.408872D-02  0.284480D-02
               16            17            18            19            20 
     16  0.701157D-01
     17  0.923701D-04  0.810280D-01
     18  0.109828D-01 -0.130742D+00  0.438732D+00
     19 -0.672127D-02  0.210084D-02 -0.801891D-03  0.784871D-01
     20  0.242809D-02  0.204807D-03  0.843034D-03  0.427884D-02  0.771376D-01
     21 -0.484122D-03 -0.562251D-03  0.617227D-03 -0.675011D-02 -0.358276D-01
     22  0.921213D-03 -0.137245D-02  0.279319D-04  0.217651D-02 -0.521214D-03
     23 -0.105652D-02  0.935811D-03 -0.799021D-05 -0.828720D-03  0.756849D-02
     24  0.774485D-03 -0.723701D-03  0.473938D-03  0.101774D-01 -0.425379D-01
     25 -0.285572D-03  0.343136D-04 -0.706043D-03 -0.601379D-02 -0.595769D-02
     26 -0.386946D-03  0.413872D-03  0.588349D-05 -0.614799D-02 -0.363581D-02
     27  0.650478D-03 -0.241198D-03  0.157132D-03  0.221603D-02  0.233413D-02
     28  0.532744D-04 -0.156905D-02 -0.798845D-03  0.363987D-04 -0.240249D-03
     29 -0.126246D-02  0.743728D-02  0.326279D-02  0.141109D-03  0.297302D-03
     30 -0.810841D-03  0.460613D-02  0.285013D-02  0.362210D-03 -0.967546D-04
               21            22            23            24            25 
     21  0.480377D+00
     22 -0.180966D-02  0.936112D-01
     23  0.640339D-02 -0.622645D-01  0.391157D+00
     24 -0.985402D-02 -0.276338D-01  0.129417D+00  0.123522D+00
     25 -0.219814D-03  0.224207D-02  0.233270D-02 -0.166603D-02  0.343226D-01
     26 -0.161413D-03  0.132413D-02  0.246307D-02  0.116531D-02  0.479891D-01
     27  0.134039D-02 -0.175093D-02 -0.483427D-03  0.208974D-02 -0.426628D-01
     28 -0.407338D-04  0.276695D-03 -0.810681D-04  0.280819D-04  0.536765D-04
     29  0.545395D-03 -0.102505D-02 -0.381104D-03 -0.200976D-03  0.117211D-03
     30  0.402797D-03 -0.651269D-03 -0.415148D-03 -0.203813D-03 -0.645194D-05
               26            27            28            29            30 
     26  0.242979D-01
     27 -0.921903D-01  0.757598D+00
     28 -0.475524D-04  0.282691D-04  0.327069D-01
     29  0.283701D-05 -0.586998D-04 -0.110941D-01  0.812467D-01
     30  0.564307D-04  0.194931D-04 -0.696622D-02  0.317989D-01  0.502126D-01
 Force constants in internal coordinates: 
                1             2             3             4             5 
      1  0.468955D+00
      2  0.655372D-02  0.161909D-01
      3 -0.254660D-02 -0.140553D-02  0.484975D+00
      4 -0.139651D-02 -0.128760D-02 -0.599480D-02  0.481657D+00
      5  0.241202D-01 -0.100349D-02 -0.812169D-03 -0.812345D-04  0.574905D+00
      6  0.523537D-03 -0.764156D-03  0.218970D-03 -0.688058D-03  0.100158D-01
      7  0.485428D-02 -0.132202D-02  0.965379D-04 -0.123421D-03  0.165733D-01
      8 -0.265333D-03 -0.173479D-03 -0.533736D-03  0.291498D-03 -0.296126D-01
      9 -0.606414D-02  0.157506D+00 -0.140204D-02 -0.143199D-02  0.514148D-03
     10  0.758339D-02  0.566504D-02 -0.199859D-02 -0.214209D-02 -0.226348D-02
     11  0.126398D-01 -0.832240D-02  0.437782D-02 -0.681998D-02  0.778920D-02
     12  0.132301D-01 -0.841910D-02 -0.610638D-02  0.535988D-02 -0.577069D-02
     13 -0.103067D-01  0.729527D-02 -0.109125D-02  0.107322D-03 -0.812473D-03
     14 -0.104350D-01  0.701176D-02  0.848505D-04 -0.128341D-02  0.182971D-02
     15 -0.170452D-01  0.193976D-02  0.416388D-02  0.410252D-02 -0.105392D-02
     16  0.160963D-01 -0.404728D-02  0.474183D-02 -0.264580D-02  0.203498D-01
     17  0.132321D-01 -0.121036D-02 -0.157147D-02  0.270569D-02 -0.207443D-01
     18  0.122266D-01  0.479318D-02 -0.238378D-02 -0.516103D-03 -0.252485D-01
     19 -0.157449D-01  0.148416D-02 -0.106314D-02  0.175708D-03  0.101068D-01
     20 -0.165685D-01 -0.392028D-03 -0.680170D-03  0.994975D-03  0.158363D-01
     21 -0.117996D-01 -0.639729D-03  0.792678D-03 -0.523953D-03 -0.332226D-03
     22 -0.458168D-02 -0.341899D-03 -0.758299D-03  0.106171D-02  0.675659D-01
     23 -0.138096D-02  0.635170D-03  0.455571D-03  0.486050D-03 -0.103706D-03
     24  0.419984D-03 -0.888017D-03  0.667849D-03 -0.622963D-03 -0.174857D-03
     25  0.201913D-03  0.940489D-03  0.138229D-02 -0.196203D-02  0.252071D-02
     26 -0.112166D-03 -0.662790D-03  0.205207D-02 -0.160161D-02  0.143617D-01
     27  0.767213D-03  0.729218D-03  0.639705D-03 -0.935607D-03 -0.137262D-01
     28  0.160528D-02 -0.730922D-02  0.176700D-02  0.268139D-02  0.101973D-02
     29  0.129120D-02 -0.891250D-02  0.243678D-02  0.304181D-02  0.128608D-01
     30  0.217058D-02 -0.752049D-02  0.102441D-02  0.370781D-02 -0.152272D-01
     31 -0.924048D-03  0.885095D-02 -0.291559D-02 -0.217033D-02  0.356394D-03
     32 -0.123813D-02  0.724767D-02 -0.224581D-02 -0.180991D-02  0.121974D-01
     33 -0.358748D-03  0.863968D-02 -0.365818D-02 -0.114391D-02 -0.158905D-01
     34  0.548827D-03 -0.208777D-02  0.168042D-03  0.106465D-02 -0.465674D-03
     35 -0.146996D-01  0.792469D-03  0.396963D-04 -0.846811D-03  0.643658D-02
     36  0.158209D-01  0.922901D-03  0.213202D-04 -0.811968D-03 -0.640433D-02
                6             7             8             9            10 
      6  0.483638D+00
      7 -0.328399D-02  0.456275D+00
      8 -0.104956D-02  0.298222D-03  0.772080D+00
      9  0.646559D-03  0.345162D-03  0.523654D-04  0.103516D+00
     10 -0.173794D-02  0.101040D-02  0.000000D+00 -0.478672D-02  0.754583D-01
     11 -0.111285D-02 -0.619446D-03 -0.115464D-02  0.493341D-02 -0.126500D-01
     12  0.139863D-02 -0.138175D-02  0.126707D-02  0.530439D-02 -0.145120D-01
     13  0.705301D-03  0.276671D-03  0.344967D-03 -0.382576D-02 -0.299727D-01
     14  0.679846D-03  0.372691D-03 -0.332838D-03 -0.336309D-02 -0.304765D-01
     15  0.270318D-04  0.776623D-03 -0.128058D-03 -0.132470D-02  0.142150D-01
     16 -0.386358D-02 -0.410184D-02 -0.742501D-02  0.152462D-02 -0.664030D-02
     17  0.866767D-03 -0.504020D-02 -0.188642D-03  0.165386D-03 -0.327514D-02
     18 -0.377357D-02  0.288125D-02  0.252502D-02 -0.177667D-02  0.940778D-02
     19  0.381031D-02  0.313645D-03  0.667713D-02 -0.583018D-03  0.343618D-02
     20  0.486991D-03  0.266913D-02 -0.531479D-03  0.272068D-03 -0.159565D-02
     21  0.322188D-02  0.354161D-02 -0.588134D-03  0.406383D-03 -0.144242D-02
     22  0.100323D-02 -0.438959D-02  0.262841D-01  0.154201D-03  0.310563D-03
     23 -0.191627D-03 -0.389766D-03  0.698834D-04  0.837032D-03 -0.418231D-03
     24  0.552378D-05  0.487979D-04 -0.320319D-04 -0.584356D-03 -0.466828D-03
     25 -0.294029D-02  0.288327D-02 -0.276650D-02 -0.613245D-03  0.152954D-02
     26 -0.291575D-04 -0.289280D-02  0.724851D-03 -0.240675D-03 -0.719874D-03
     27  0.214811D-02  0.165591D-03  0.141964D-02 -0.719114D-03  0.124558D-02
     28 -0.214469D-02  0.222238D-02 -0.260588D-02  0.456993D-02 -0.317841D-02
     29  0.766441D-03 -0.355369D-02  0.885471D-03  0.494250D-02 -0.542782D-02
     30  0.294370D-02 -0.495297D-03  0.158026D-02  0.446406D-02 -0.346237D-02
     31 -0.251200D-02  0.328246D-02 -0.252620D-02 -0.509057D-02  0.535636D-02
     32  0.399125D-03 -0.249361D-02  0.965157D-03 -0.471800D-02  0.310695D-02
     33  0.257639D-02  0.564786D-03  0.165995D-02 -0.519644D-02  0.507240D-02
     34  0.294763D-02 -0.445320D-02  0.839857D-03  0.556351D-03 -0.409709D-02
     35  0.158137D-02  0.398919D-02  0.944843D-03 -0.152789D-03  0.155044D-02
     36 -0.452058D-02 -0.163852D-02 -0.175612D-02 -0.443525D-03  0.214179D-02
               11            12            13            14            15 
     11  0.112872D+00
     12 -0.374880D-01  0.116853D+00
     13 -0.323099D-01  0.131186D-01  0.358706D-01
     14  0.129932D-01 -0.333132D-01  0.712976D-02  0.369679D-01
     15 -0.532600D-01 -0.554717D-01  0.109599D-01  0.116985D-01  0.841685D-01
     16  0.265985D-01 -0.167872D-01 -0.510529D-02  0.602743D-02 -0.555500D-02
     17 -0.116610D-01  0.173559D-01  0.336076D-02 -0.383896D-02 -0.295978D-02
     18 -0.904681D-02 -0.861099D-03 -0.174346D-04 -0.233493D-02  0.457405D-02
     19 -0.529213D-02 -0.986980D-03  0.834475D-03 -0.399558D-03  0.344145D-02
     20 -0.659616D-02  0.641912D-02  0.197958D-02 -0.106514D-02  0.744426D-03
     21  0.487641D-02 -0.416312D-02 -0.727092D-03  0.139479D-02 -0.925494D-04
     22 -0.144508D-02  0.121619D-02  0.424087D-03 -0.417614D-03 -0.167593D-04
     23 -0.259523D-03 -0.214650D-03  0.192428D-03  0.391321D-03  0.378929D-03
     24  0.279223D-03 -0.136625D-03  0.139339D-03  0.170789D-03 -0.123065D-04
     25  0.728117D-02 -0.870151D-02  0.356096D-02 -0.420016D-02  0.782413D-03
     26  0.992324D-02 -0.895639D-02  0.359977D-02 -0.341230D-02 -0.530757D-03
     27  0.343908D-02 -0.418411D-02  0.471084D-02 -0.541544D-02  0.351218D-03
     28 -0.219304D-02  0.332012D-02 -0.493770D-02 -0.212476D-03  0.527221D-02
     29  0.449027D-03  0.306524D-02 -0.489890D-02  0.575383D-03  0.395904D-02
     30 -0.603513D-02  0.783752D-02 -0.378782D-02 -0.142776D-02  0.484102D-02
     31 -0.410627D-02  0.920261D-03 -0.285299D-03  0.438983D-02 -0.410826D-02
     32 -0.146420D-02  0.665378D-03 -0.246494D-03  0.517768D-02 -0.542143D-02
     33 -0.794836D-02  0.543766D-02  0.864580D-03  0.317454D-02 -0.453945D-02
     34 -0.200887D-02  0.679983D-02  0.145395D-02 -0.760259D-03 -0.224404D-02
     35  0.342753D-03 -0.414599D-02 -0.265118D-03  0.715347D-03  0.237093D-02
     36  0.721080D-03 -0.184308D-02 -0.831042D-03 -0.185244D-03  0.236089D-03
               16            17            18            19            20 
     16  0.189020D+00
     17 -0.425840D-01  0.977563D-01
     18 -0.444853D-01 -0.115117D-01  0.969204D-01
     19 -0.697768D-01 -0.396978D-01  0.272687D-01  0.810202D-01
     20 -0.720567D-01  0.275092D-01 -0.416680D-01  0.103038D-01  0.864171D-01
     21  0.303743D-01 -0.301343D-01 -0.299159D-01 -0.490697D-02 -0.392399D-02
     22 -0.140176D-01 -0.787079D-02  0.727509D-02  0.209001D-01 -0.343032D-02
     23  0.303951D-04 -0.471175D-03  0.756579D-04  0.144797D-03 -0.302542D-04
     24  0.846889D-04  0.245464D-03 -0.156754D-03 -0.134694D-03  0.128844D-04
     25  0.408021D-02  0.419477D-03 -0.385054D-02 -0.158095D-01  0.137117D-01
     26  0.982025D-02 -0.103521D-01 -0.630487D-02  0.139997D-01 -0.139569D-02
     27 -0.541171D-02  0.432162D-02  0.882971D-02  0.735363D-03 -0.149337D-01
     28  0.110185D-02  0.425409D-02 -0.520518D-02 -0.163276D-01  0.156236D-01
     29  0.684189D-02 -0.651745D-02 -0.765952D-02  0.134816D-01  0.516237D-03
     30 -0.839008D-02  0.815624D-02  0.747506D-02  0.217300D-03 -0.130218D-01
     31 -0.139046D-02  0.248446D-02 -0.109931D-02 -0.145940D-01  0.146620D-01
     32  0.434958D-02 -0.828708D-02 -0.355364D-02  0.152152D-01 -0.445394D-03
     33 -0.108824D-01  0.638661D-02  0.115809D-01  0.195087D-02 -0.139835D-01
     34 -0.711251D-02  0.320849D-01 -0.279376D-01 -0.858974D-02  0.146470D-01
     35 -0.186088D-01 -0.371512D-01 -0.587742D-02  0.270444D-01  0.160454D-01
     36  0.189418D-01  0.653710D-02  0.346102D-01 -0.164982D-01 -0.270323D-01
               21            22            23            24            25 
     21  0.402502D-01
     22 -0.201969D-02  0.291189D+00
     23  0.259452D-03 -0.532793D-04  0.360381D-01
     24 -0.526782D-04 -0.632490D-04 -0.737286D-03  0.146008D-01
     25  0.979698D-03 -0.722809D-02 -0.106362D-03  0.554141D-04  0.178224D-01
     26 -0.619044D-02  0.471085D-02 -0.228236D-03  0.109459D-03  0.687726D-03
     27  0.691716D-02  0.193065D-02 -0.147073D-03  0.971051D-04 -0.191631D-03
     28  0.321437D-03 -0.721298D-02  0.533519D-04  0.395991D-04  0.887511D-02
     29 -0.684870D-02  0.472595D-02 -0.685218D-04  0.936442D-04 -0.825962D-02
     30  0.625890D-02  0.194576D-02  0.126410D-04  0.812901D-04 -0.913897D-02
     31 -0.367892D-03 -0.691801D-02 -0.642560D-05 -0.105547D-03  0.922975D-02
     32 -0.753803D-02  0.502092D-02 -0.128299D-03 -0.515024D-04 -0.790497D-02
     33  0.556957D-02  0.224073D-02 -0.471365D-04 -0.638565D-04 -0.878433D-02
     34 -0.118125D-02 -0.378724D-03 -0.165557D-03  0.198818D-03 -0.531446D-02
     35  0.215607D-01  0.353659D-02  0.302385D-03 -0.641934D-04  0.241386D-02
     36 -0.210964D-01 -0.384813D-02 -0.666115D-04  0.650037D-04  0.323365D-02
               26            27            28            29            30 
     26  0.177636D-01
     27  0.184878D-03  0.165710D-01
     28 -0.821841D-02 -0.842765D-02  0.179772D-01
     29  0.885743D-02 -0.805114D-02  0.883696D-03  0.180007D-01
     30 -0.872126D-02  0.833495D-02  0.674453D-03  0.109217D-02  0.181484D-01
     31 -0.851747D-02 -0.814567D-02  0.826840D-02 -0.947882D-02 -0.910702D-02
     32  0.855836D-02 -0.776916D-02 -0.882511D-02  0.763822D-02 -0.868930D-02
     33 -0.902032D-02  0.861694D-02 -0.903436D-02 -0.927035D-02  0.836691D-02
     34  0.129400D-02  0.215198D-02 -0.349394D-02  0.311452D-02  0.397249D-02
     35 -0.109681D-02 -0.509664D-03  0.158818D-02 -0.192249D-02 -0.133535D-02
     36 -0.803587D-03 -0.176464D-02  0.253352D-02 -0.150373D-02 -0.246477D-02
               31            32            33            34            35 
     31  0.185057D-01
     32  0.758497D-03  0.172218D-01
     33  0.113030D-02  0.894308D-03  0.185316D-01
     34 -0.540433D-02  0.120413D-02  0.206210D-02  0.217341D-01
     35  0.216755D-02 -0.134313D-02 -0.755982D-03 -0.801910D-02  0.307106D-01
     36  0.344238D-02 -0.594865D-03 -0.155591D-02 -0.906433D-02 -0.171906D-01
               36 
     36  0.297469D-01
 Leave Link  716 at Wed Jan 23 23:55:45 2019, MaxMem=  134217728 cpu:       0.0
 (Enter /home/programs/G09_64/g09/l103.exe)

 GradGradGradGradGradGradGradGradGradGradGradGradGradGradGradGradGradGrad
 Berny optimization.
 Red2BG is reusing G-inverse.
 Internal  Forces:  Max     0.042869963 RMS     0.011946669
 Search for a saddle point.
 Step number   1 out of a maximum of   46
 All quantities printed in internal units (Hartrees-Bohrs-Radians)
 Swaping is turned off.
 Second derivative matrix not updated -- analytic derivatives used.
 ITU=  0
     Eigenvalues ---   -0.10941   0.00169   0.00444   0.01456   0.03601
     Eigenvalues ---    0.03802   0.04338   0.07069   0.07540   0.10383
     Eigenvalues ---    0.13929   0.15831   0.16478   0.19193   0.22345
     Eigenvalues ---    0.26324   0.30113   0.45477   0.47322   0.47931
     Eigenvalues ---    0.48456   0.49037   0.59974   0.77760
 Eigenvectors required to have negative eigenvalues:
                          R2        R9        D7        D9        D5
   1                   -0.78328   0.59330   0.06692   0.06541  -0.06395
                          D8        D6        D4        A4        A5
   1                    0.05986  -0.05840  -0.05688   0.05094   0.04756
 RFO step:  Lambda0=5.576844790D-03 Lambda=-1.10292053D-02.
 Linear search not attempted -- option 19 set.
 Iteration  1 RMS(Cart)=  0.03899300 RMS(Int)=  0.00225474
 Iteration  2 RMS(Cart)=  0.00193328 RMS(Int)=  0.00136773
 Iteration  3 RMS(Cart)=  0.00000610 RMS(Int)=  0.00136772
 Iteration  4 RMS(Cart)=  0.00000003 RMS(Int)=  0.00136772
 Variable       Old X    -DE/DX   Delta X   Delta X   Delta X     New X
                                 (Linear)    (Quad)   (Total)
    R1        2.81953   0.03556   0.00000   0.08076   0.08076   2.90029
    R2        2.62801   0.01181   0.00000  -0.19002  -0.19002   2.43799
    R3        2.04686   0.00123   0.00000   0.00484   0.00484   2.05169
    R4        2.04884   0.00100   0.00000   0.00466   0.00466   2.05350
    R5        2.66329   0.02167   0.00000   0.04411   0.04411   2.70740
    R6        2.05393   0.00674   0.00000   0.01251   0.01251   2.06644
    R7        2.07128   0.00477   0.00000   0.00538   0.00538   2.07666
    R8        1.80779   0.04287   0.00000   0.05917   0.05917   1.86695
    R9        1.68005  -0.02943   0.00000   0.05399   0.05399   1.73405
    A1        1.84762   0.00236   0.00000   0.04530   0.04611   1.89373
    A2        2.01319  -0.00100   0.00000  -0.04493  -0.04802   1.96518
    A3        2.02039  -0.00201   0.00000  -0.04240  -0.04549   1.97491
    A4        1.78646   0.00048   0.00000   0.05502   0.05583   1.84229
    A5        1.78888   0.00055   0.00000   0.04976   0.05051   1.83939
    A6        1.96934   0.00046   0.00000  -0.02542  -0.03104   1.93830
    A7        1.97860   0.00279   0.00000   0.00104   0.00106   1.97966
    A8        1.92644  -0.00245   0.00000  -0.01620  -0.01624   1.91020
    A9        1.91717  -0.00190   0.00000  -0.01057  -0.01060   1.90657
   A10        1.84510   0.00015   0.00000   0.01093   0.01092   1.85602
   A11        1.93025   0.00069   0.00000   0.00738   0.00737   1.93761
   A12        1.86163   0.00065   0.00000   0.00851   0.00835   1.86998
   A13        1.90077  -0.02099   0.00000  -0.08482  -0.08482   1.81596
   A14        3.11463   0.00096   0.00000   0.02351   0.02351   3.13814
   A15        3.18966  -0.00059   0.00000  -0.02742  -0.02742   3.16224
    D1       -1.11093   0.00068   0.00000   0.01602   0.01600  -1.09493
    D2        0.95510   0.00101   0.00000   0.01939   0.01934   0.97444
    D3        3.00307  -0.00081   0.00000   0.01371   0.01372   3.01679
    D4       -3.07235  -0.00088   0.00000  -0.05679  -0.05520  -3.12755
    D5       -1.00631  -0.00056   0.00000  -0.05342  -0.05187  -1.05818
    D6        1.04166  -0.00238   0.00000  -0.05910  -0.05749   0.98417
    D7        0.85706   0.00185   0.00000   0.08429   0.08273   0.93979
    D8        2.92310   0.00217   0.00000   0.08766   0.08607   3.00916
    D9       -1.31212   0.00035   0.00000   0.08198   0.08045  -1.23167
   D10       -1.03412  -0.00052   0.00000  -0.00851  -0.00851  -1.04263
   D11        3.13657   0.00076   0.00000   0.00358   0.00363   3.14020
   D12        1.12795  -0.00042   0.00000  -0.01597  -0.01602   1.11192
         Item               Value     Threshold  Converged?
 Maximum Force            0.042870     0.000450     NO 
 RMS     Force            0.011947     0.000300     NO 
 Maximum Displacement     0.106876     0.001800     NO 
 RMS     Displacement     0.039322     0.001200     NO 
 Predicted change in Energy=-2.899255D-03
 GradGradGradGradGradGradGradGradGradGradGradGradGradGradGradGradGradGrad

 Leave Link  103 at Wed Jan 23 23:55:45 2019, MaxMem=  134217728 cpu:       0.0
 (Enter /home/programs/G09_64/g09/l202.exe)
                          Input orientation:                          
 ---------------------------------------------------------------------
 Center     Atomic      Atomic             Coordinates (Angstroms)
 Number     Number       Type             X           Y           Z
 ---------------------------------------------------------------------
      1          6           0       -1.243908    0.016751   -0.202507
      2          6           0        0.114882   -0.520342    0.267305
      3          8           0        1.206182    0.362795   -0.018609
      4          1           0       -1.496986    1.107287    0.438677
      5          1           0       -2.062613   -0.656260    0.033171
      6          1           0       -1.254489    0.291296   -1.253867
      7          1           0        0.099724   -0.649234    1.353088
      8          1           0        0.284474   -1.512246   -0.174275
      9          1           0        1.189437    0.454055   -1.002192
     10          1           0       -1.679808    1.876252    0.904825
 ---------------------------------------------------------------------
                    Distance matrix (angstroms):
                    1          2          3          4          5
     1  C    0.000000
     2  C    1.534765   0.000000
     3  O    2.481231   1.432694   0.000000
     4  H    1.290129   2.297098   2.840861   0.000000
     5  H    1.085709   2.194260   3.424350   1.895908   0.000000
     6  H    1.086666   2.201794   2.754246   1.894558   1.790919
     7  H    2.160731   1.093511   2.032241   2.543814   2.533363
     8  H    2.162078   1.098921   2.095127   3.226648   2.506903
     9  H    2.598442   1.927626   0.987949   3.117640   3.588956
    10  H    2.207699   3.061210   3.387066   0.917620   2.705538
                    6          7          8          9         10
     6  H    0.000000
     7  H    3.084590   0.000000
     8  H    2.605127   1.764018   0.000000
     9  H    2.462236   2.819941   2.317486   0.000000
    10  H    2.711629   3.121818   4.062607   3.727188   0.000000
 Symmetry turned off by external request.
 Stoichiometry    C2H7O(2)
 Framework group  C1[X(C2H7O)]
 Deg. of freedom    24
 Full point group                 C1      NOp   1
 Rotational constants (GHZ):     24.9261328      8.2531236      7.4004399
 Leave Link  202 at Wed Jan 23 23:55:45 2019, MaxMem=  134217728 cpu:       0.0
 (Enter /home/programs/G09_64/g09/l301.exe)
 Standard basis: STO-3G (5D, 7F)
 Ernie: Thresh=  0.10000D-02 Tol=  0.10000D-05 Strict=F.
 Integral buffers will be    131072 words long.
 Raffenetti 2 integral format.
 Two-electron integral symmetry is turned off.
    22 basis functions,    66 primitive gaussians,    22 cartesian basis functions
    14 alpha electrons       13 beta electrons
       nuclear repulsion energy        85.6125323667 Hartrees.
 IExCor=    0 DFT=F Ex=HF Corr=None ExCW=0 ScaHFX=  1.000000
 ScaDFX=  1.000000  1.000000  1.000000  1.000000 ScalE2=  1.000000  1.000000
 IRadAn=      0 IRanWt=     -1 IRanGd=            0 ICorTp=0
 NAtoms=   10 NActive=   10 NUniq=   10 SFac= 1.00D+00 NAtFMM=   50 NAOKFM=F Big=F
 Leave Link  301 at Wed Jan 23 23:55:45 2019, MaxMem=  134217728 cpu:       0.0
 (Enter /home/programs/G09_64/g09/l302.exe)
 NPDir=0 NMtPBC=     1 NCelOv=     1 NCel=       1 NClECP=     1 NCelD=      1
         NCelK=      1 NCelE2=     1 NClLst=     1 CellRange=     0.0.
 One-electron integrals computed using PRISM.
 NBasis=    22 RedAO= T  NBF=    22
 NBsUse=    22 1.00D-06 NBFU=    22
 Leave Link  302 at Wed Jan 23 23:55:46 2019, MaxMem=  134217728 cpu:       0.2
 (Enter /home/programs/G09_64/g09/l303.exe)
 DipDrv:  MaxL=1.
 Leave Link  303 at Wed Jan 23 23:55:46 2019, MaxMem=  134217728 cpu:       0.0
 (Enter /home/programs/G09_64/g09/l401.exe)
 Initial guess read from the read-write file.
 B after Tr=     0.000000    0.000000    0.000000
         Rot=    1.000000    0.000000    0.000000    0.000000 Ang=   0.00 deg.
 Guess basis will be translated and rotated to current coordinates.
 Initial guess <Sx>= 0.0000 <Sy>= 0.0000 <Sz>= 0.5000 <S**2>= 0.7880 S= 0.5188
 Generating alternative initial guess.
 Harris functional with IExCor=  205 diagonalized for initial guess.
 ExpMin= 1.69D-01 ExpMax= 1.31D+02 ExpMxC= 1.31D+02 IAcc=1 IRadAn=         1 AccDes= 0.00D+00
 HarFok:  IExCor=  205 AccDes= 0.00D+00 IRadAn=         1 IDoV= 1
 ScaDFX=  1.000000  1.000000  1.000000  1.000000
 FoFCou: FMM=F IPFlag=           0 FMFlag=      100000 FMFlg1=           0
         NFxFlg=           0 DoJE=T BraDBF=F KetDBF=T FulRan=T
         Omega=  0.000000  0.000000  1.000000  0.000000  0.000000 ICntrl=     500 IOpCl=  0
         NMat0=    1 NMatS0=    1 NMatT0=    0 NMatD0=    1 NMtDS0=    0 NMtDT0=    0
         I1Cent=           4 NGrid=           0.
 Symmetry not used in FoFCou.
 Harris En= -152.785263023851    
 Leave Link  401 at Wed Jan 23 23:55:46 2019, MaxMem=  134217728 cpu:       0.3
 (Enter /home/programs/G09_64/g09/l502.exe)
 UHF open shell SCF:
 Requested convergence on RMS density matrix=1.00D-08 within 128 cycles.
 Requested convergence on MAX density matrix=1.00D-06.
 Requested convergence on             energy=1.00D-06.
 No special actions if energy rises.
 Using DIIS extrapolation, IDIIS=  1040.
 Two-electron integral symmetry not used.
 Keep R1 and R2 ints in memory in canonical form, NReq=884165.
 IEnd=       19882 IEndB=       19882 NGot=   134217728 MDV=   134150703
 LenX=   134150703 LenY=   134149778
 Symmetry not used in FoFDir.
 MinBra= 0 MaxBra= 1 Meth= 1.
 IRaf=       0 NMat=   1 IRICut=       1 DoRegI=T DoRafI=F ISym2E= 0 JSym2E=0.

 Cycle   1  Pass 1  IDiag  1:
 E= -152.557337934442    
 DIIS: error= 1.17D-02 at cycle   1 NSaved=   1.
 NSaved= 1 IEnMin= 1 EnMin= -152.557337934442     IErMin= 1 ErrMin= 1.17D-02
 ErrMax= 1.17D-02 EMaxC= 1.00D-01 BMatC= 6.58D-03 BMatP= 6.58D-03
 IDIUse=3 WtCom= 8.83D-01 WtEn= 1.17D-01
 Coeff-Com:  0.100D+01
 Coeff-En:   0.100D+01
 Coeff:      0.100D+01
 Recover alternate guess density for next cycle.
 RMSDP=1.82D-02 MaxDP=1.57D-01              OVMax= 0.00D+00

 Cycle   2  Pass 1  IDiag  1:
 E= -152.469887918785     Delta-E=        0.087450015657 Rises=F Damp=F
 Switch densities from cycles 1 and 2 for lowest energy.
 DIIS: error= 3.98D-02 at cycle   2 NSaved=   2.
 NSaved= 2 IEnMin= 1 EnMin= -152.557337934442     IErMin= 1 ErrMin= 1.17D-02
 ErrMax= 3.98D-02 EMaxC= 1.00D+00 BMatC= 2.95D-01 BMatP= 6.58D-03
 IDIUse=1 WtCom= 1.00D+00 WtEn= 0.00D+00
 Coeff-Com:  0.100D+01-0.129D-02
 Coeff:      0.100D+01-0.129D-02
 Gap=     0.888 Goal=   None    Shift=    0.000
 Gap=     0.574 Goal=   None    Shift=    0.000
 RMSDP=1.08D-01 MaxDP=1.05D+00 DE= 8.75D-02 OVMax= 0.00D+00

 Cycle   3  Pass 1  IDiag  1:
 E= -152.561759401137     Delta-E=       -0.091871482351 Rises=F Damp=F
 DIIS: error= 6.79D-03 at cycle   3 NSaved=   3.
 NSaved= 3 IEnMin= 3 EnMin= -152.561759401137     IErMin= 3 ErrMin= 6.79D-03
 ErrMax= 6.79D-03 EMaxC= 1.00D+00 BMatC= 1.50D-03 BMatP= 6.58D-03
 IDIUse=1 WtCom= 1.00D+00 WtEn= 0.00D+00
 Coeff-Com: -0.515D+00 0.636D-02 0.151D+01
 Coeff:     -0.515D+00 0.636D-02 0.151D+01
 Gap=     0.864 Goal=   None    Shift=    0.000
 Gap=     0.599 Goal=   None    Shift=    0.000
 RMSDP=2.79D-03 MaxDP=2.72D-02 DE=-9.19D-02 OVMax= 0.00D+00

 Cycle   4  Pass 1  IDiag  1:
 E= -152.563392526877     Delta-E=       -0.001633125741 Rises=F Damp=F
 DIIS: error= 2.69D-03 at cycle   4 NSaved=   4.
 NSaved= 4 IEnMin= 4 EnMin= -152.563392526877     IErMin= 4 ErrMin= 2.69D-03
 ErrMax= 2.69D-03 EMaxC= 1.00D+00 BMatC= 2.49D-04 BMatP= 1.50D-03
 IDIUse=1 WtCom= 1.00D+00 WtEn= 0.00D+00
 Coeff-Com:  0.684D-01 0.467D-03-0.527D+00 0.146D+01
 Coeff:      0.684D-01 0.467D-03-0.527D+00 0.146D+01
 Gap=     0.869 Goal=   None    Shift=    0.000
 Gap=     0.595 Goal=   None    Shift=    0.000
 RMSDP=1.33D-03 MaxDP=1.48D-02 DE=-1.63D-03 OVMax= 0.00D+00

 Cycle   5  Pass 1  IDiag  1:
 E= -152.563727040014     Delta-E=       -0.000334513137 Rises=F Damp=F
 DIIS: error= 9.14D-04 at cycle   5 NSaved=   5.
 NSaved= 5 IEnMin= 5 EnMin= -152.563727040014     IErMin= 5 ErrMin= 9.14D-04
 ErrMax= 9.14D-04 EMaxC= 1.00D+00 BMatC= 4.23D-05 BMatP= 2.49D-04
 IDIUse=1 WtCom= 1.00D+00 WtEn= 0.00D+00
 Coeff-Com:  0.901D-01-0.282D-02-0.175D+00-0.390D+00 0.148D+01
 Coeff:      0.901D-01-0.282D-02-0.175D+00-0.390D+00 0.148D+01
 Gap=     0.869 Goal=   None    Shift=    0.000
 Gap=     0.596 Goal=   None    Shift=    0.000
 RMSDP=6.85D-04 MaxDP=8.05D-03 DE=-3.35D-04 OVMax= 0.00D+00

 Cycle   6  Pass 1  IDiag  1:
 E= -152.563782157520     Delta-E=       -0.000055117506 Rises=F Damp=F
 DIIS: error= 1.24D-04 at cycle   6 NSaved=   6.
 NSaved= 6 IEnMin= 6 EnMin= -152.563782157520     IErMin= 6 ErrMin= 1.24D-04
 ErrMax= 1.24D-04 EMaxC= 1.00D+00 BMatC= 2.79D-06 BMatP= 4.23D-05
 IDIUse=1 WtCom= 1.00D+00 WtEn= 0.00D+00
 Coeff-Com: -0.279D-01 0.740D-03 0.895D-01-0.245D-01-0.371D+00 0.133D+01
 Coeff:     -0.279D-01 0.740D-03 0.895D-01-0.245D-01-0.371D+00 0.133D+01
 Gap=     0.869 Goal=   None    Shift=    0.000
 Gap=     0.596 Goal=   None    Shift=    0.000
 RMSDP=1.26D-04 MaxDP=1.04D-03 DE=-5.51D-05 OVMax= 0.00D+00

 Cycle   7  Pass 1  IDiag  1:
 E= -152.563784853832     Delta-E=       -0.000002696312 Rises=F Damp=F
 DIIS: error= 6.14D-05 at cycle   7 NSaved=   7.
 NSaved= 7 IEnMin= 7 EnMin= -152.563784853832     IErMin= 7 ErrMin= 6.14D-05
 ErrMax= 6.14D-05 EMaxC= 1.00D+00 BMatC= 4.75D-07 BMatP= 2.79D-06
 IDIUse=1 WtCom= 1.00D+00 WtEn= 0.00D+00
 Coeff-Com:  0.482D-02 0.604D-04-0.266D-01 0.447D-01 0.557D-01-0.690D+00
 Coeff-Com:  0.161D+01
 Coeff:      0.482D-02 0.604D-04-0.266D-01 0.447D-01 0.557D-01-0.690D+00
 Coeff:      0.161D+01
 Gap=     0.869 Goal=   None    Shift=    0.000
 Gap=     0.596 Goal=   None    Shift=    0.000
 RMSDP=5.02D-05 MaxDP=3.94D-04 DE=-2.70D-06 OVMax= 0.00D+00

 Cycle   8  Pass 1  IDiag  1:
 E= -152.563785328120     Delta-E=       -0.000000474288 Rises=F Damp=F
 DIIS: error= 2.20D-05 at cycle   8 NSaved=   8.
 NSaved= 8 IEnMin= 8 EnMin= -152.563785328120     IErMin= 8 ErrMin= 2.20D-05
 ErrMax= 2.20D-05 EMaxC= 1.00D+00 BMatC= 7.69D-08 BMatP= 4.75D-07
 IDIUse=1 WtCom= 1.00D+00 WtEn= 0.00D+00
 Coeff-Com:  0.304D-02-0.825D-04-0.764D-02-0.661D-02 0.464D-01-0.646D-01
 Coeff-Com: -0.352D+00 0.138D+01
 Coeff:      0.304D-02-0.825D-04-0.764D-02-0.661D-02 0.464D-01-0.646D-01
 Coeff:     -0.352D+00 0.138D+01
 Gap=     0.869 Goal=   None    Shift=    0.000
 Gap=     0.596 Goal=   None    Shift=    0.000
 RMSDP=2.14D-05 MaxDP=1.77D-04 DE=-4.74D-07 OVMax= 0.00D+00

 Cycle   9  Pass 1  IDiag  1:
 E= -152.563785408048     Delta-E=       -0.000000079928 Rises=F Damp=F
[...]
     32 -0.785428D-02  0.586245D-02 -0.157829D-03 -0.130297D-03 -0.831349D-02
     33  0.599534D-02  0.208851D-02 -0.138546D-03 -0.128980D-03 -0.916869D-02
     34 -0.106626D-02 -0.382481D-03 -0.316351D-04  0.111587D-03 -0.540743D-02
     35  0.207203D-01  0.409177D-02  0.171782D-03 -0.461326D-04  0.246578D-02
     36 -0.202546D-01 -0.413717D-02 -0.806944D-04  0.382954D-04  0.312552D-02
               26            27            28            29            30 
     26  0.187879D-01
     27  0.155276D-02  0.173506D-01
     28 -0.857509D-02 -0.866790D-02  0.186772D-01
     29  0.800635D-02 -0.846642D-02  0.236813D-02  0.191066D-01
     30 -0.922880D-02  0.733138D-02  0.227532D-02  0.263386D-02  0.191940D-01
     31 -0.894882D-02 -0.839743D-02  0.692495D-02 -0.101765D-01 -0.962514D-02
     32  0.763261D-02 -0.819594D-02 -0.938415D-02  0.656195D-02 -0.926660D-02
     33 -0.960254D-02  0.760186D-02 -0.947697D-02 -0.991081D-02  0.729358D-02
     34  0.116144D-02  0.190090D-02 -0.324610D-02  0.332277D-02  0.406223D-02
     35 -0.889382D-03 -0.382757D-03  0.142569D-02 -0.192948D-02 -0.142285D-02
     36 -0.675912D-03 -0.157987D-02  0.225384D-02 -0.154760D-02 -0.245155D-02
               31            32            33            34            35 
     31  0.194617D-01
     32  0.236025D-02  0.183064D-01
     33  0.291165D-02  0.247780D-02  0.196822D-01
     34 -0.537633D-02  0.119254D-02  0.193200D-02  0.217922D-01
     35  0.225101D-02 -0.110415D-02 -0.597527D-03 -0.787253D-02  0.309452D-01
     36  0.319824D-02 -0.603194D-03 -0.150715D-02 -0.861858D-02 -0.170985D-01
               36 
     36  0.298199D-01
 Leave Link  716 at Wed Jan 23 23:55:54 2019, MaxMem=  134217728 cpu:       0.1
 (Enter /home/programs/G09_64/g09/l103.exe)

 GradGradGradGradGradGradGradGradGradGradGradGradGradGradGradGradGradGrad
 Berny optimization.
 Red2BG is reusing G-inverse.
 Internal  Forces:  Max     0.000014504 RMS     0.000005049
 Search for a saddle point.
 Step number   1 out of a maximum of    2
 All quantities printed in internal units (Hartrees-Bohrs-Radians)
 Swaping is turned off.
 Second derivative matrix not updated -- analytic derivatives used.
 ITU=  0
     Eigenvalues ---   -0.11961   0.00182   0.00504   0.01546   0.03820
     Eigenvalues ---    0.04619   0.05340   0.07025   0.07314   0.12160
     Eigenvalues ---    0.14046   0.16066   0.16751   0.19945   0.24203
     Eigenvalues ---    0.26304   0.30766   0.40008   0.44920   0.46903
     Eigenvalues ---    0.47295   0.48506   0.54588   0.64576
 Eigenvectors required to have negative eigenvalues:
                          R9        R2        D7        D5        D9
   1                    0.70295  -0.69478   0.05174  -0.05031   0.04991
                          A5        A4        A3        D6        D8
   1                    0.04531   0.04516  -0.04496  -0.04472   0.04433
 Angle between quadratic step and forces=  77.63 degrees.
 Linear search not attempted -- option 19 set.
 Iteration  1 RMS(Cart)=  0.00016692 RMS(Int)=  0.00000001
 Iteration  2 RMS(Cart)=  0.00000001 RMS(Int)=  0.00000000
 Variable       Old X    -DE/DX   Delta X   Delta X   Delta X     New X
                                 (Linear)    (Quad)   (Total)
    R1        2.90999   0.00001   0.00000   0.00002   0.00002   2.91001
    R2        2.44527   0.00000   0.00000  -0.00013  -0.00013   2.44514
    R3        2.05164   0.00000   0.00000   0.00000   0.00000   2.05164
    R4        2.05336   0.00000   0.00000   0.00000   0.00000   2.05335
    R5        2.71094   0.00000   0.00000  -0.00001  -0.00001   2.71093
    R6        2.06705   0.00000   0.00000   0.00000   0.00000   2.06705
    R7        2.07693   0.00000   0.00000   0.00000   0.00000   2.07693
    R8        1.87324   0.00001   0.00000   0.00001   0.00001   1.87325
    R9        1.75202  -0.00001   0.00000   0.00008   0.00008   1.75210
    A1        1.89234   0.00000   0.00000   0.00001   0.00001   1.89235
    A2        1.96393   0.00001   0.00000   0.00006   0.00006   1.96399
    A3        1.97489   0.00001   0.00000   0.00006   0.00006   1.97495
    A4        1.84558  -0.00001   0.00000  -0.00008  -0.00008   1.84551
    A5        1.84244  -0.00001   0.00000  -0.00010  -0.00010   1.84234
    A6        1.93521   0.00000   0.00000   0.00003   0.00003   1.93524
    A7        1.98006   0.00000   0.00000  -0.00001  -0.00001   1.98005
    A8        1.90907   0.00000   0.00000   0.00000   0.00000   1.90907
    A9        1.90406   0.00000   0.00000   0.00001   0.00001   1.90407
   A10        1.85833   0.00000   0.00000   0.00000   0.00000   1.85832
   A11        1.93769   0.00000   0.00000   0.00000   0.00000   1.93769
   A12        1.87098   0.00000   0.00000   0.00000   0.00000   1.87098
   A13        1.81515   0.00000   0.00000  -0.00001  -0.00001   1.81514
   A14        3.14435   0.00000   0.00000  -0.00002  -0.00002   3.14432
   A15        3.14555   0.00000   0.00000  -0.00005  -0.00005   3.14550
    D1       -1.01470   0.00000   0.00000  -0.00023  -0.00023  -1.01493
    D2        1.05707   0.00000   0.00000  -0.00024  -0.00024   1.05683
    D3        3.09855   0.00000   0.00000  -0.00024  -0.00024   3.09832
    D4       -3.04976   0.00000   0.00000  -0.00018  -0.00018  -3.04994
    D5       -0.97799   0.00000   0.00000  -0.00018  -0.00018  -0.97818
    D6        1.06349   0.00000   0.00000  -0.00018  -0.00018   1.06331
    D7        1.02290  -0.00001   0.00000  -0.00032  -0.00032   1.02258
    D8        3.09467  -0.00001   0.00000  -0.00032  -0.00032   3.09434
    D9       -1.14704  -0.00001   0.00000  -0.00032  -0.00032  -1.14736
   D10       -1.05340   0.00000   0.00000  -0.00018  -0.00018  -1.05358
   D11        3.12903   0.00000   0.00000  -0.00018  -0.00018   3.12886
   D12        1.09819   0.00000   0.00000  -0.00018  -0.00018   1.09802
         Item               Value     Threshold  Converged?
 Maximum Force            0.000015     0.000450     YES
 RMS     Force            0.000005     0.000300     YES
 Maximum Displacement     0.000463     0.001800     YES
 RMS     Displacement     0.000167     0.001200     YES
 Predicted change in Energy=-2.758601D-09
 Optimization completed.
    -- Stationary point found.
                           ----------------------------
                           !   Optimized Parameters   !
                           ! (Angstroms and Degrees)  !
 --------------------------                            --------------------------
 ! Name  Definition              Value          Derivative Info.                !
 --------------------------------------------------------------------------------
 ! R1    R(1,2)                  1.5399         -DE/DX =    0.0                 !
 ! R2    R(1,4)                  1.294          -DE/DX =    0.0                 !
 ! R3    R(1,5)                  1.0857         -DE/DX =    0.0                 !
 ! R4    R(1,6)                  1.0866         -DE/DX =    0.0                 !
 ! R5    R(2,3)                  1.4346         -DE/DX =    0.0                 !
 ! R6    R(2,7)                  1.0938         -DE/DX =    0.0                 !
 ! R7    R(2,8)                  1.0991         -DE/DX =    0.0                 !
 ! R8    R(3,9)                  0.9913         -DE/DX =    0.0                 !
 ! R9    R(4,10)                 0.9271         -DE/DX =    0.0                 !
 ! A1    A(2,1,4)              108.4233         -DE/DX =    0.0                 !
 ! A2    A(2,1,5)              112.5249         -DE/DX =    0.0                 !
 ! A3    A(2,1,6)              113.1529         -DE/DX =    0.0                 !
 ! A4    A(4,1,5)              105.744          -DE/DX =    0.0                 !
 ! A5    A(4,1,6)              105.5641         -DE/DX =    0.0                 !
 ! A6    A(5,1,6)              110.8794         -DE/DX =    0.0                 !
 ! A7    A(1,2,3)              113.449          -DE/DX =    0.0                 !
 ! A8    A(1,2,7)              109.3818         -DE/DX =    0.0                 !
 ! A9    A(1,2,8)              109.0946         -DE/DX =    0.0                 !
 ! A10   A(3,2,7)              106.4742         -DE/DX =    0.0                 !
 ! A11   A(3,2,8)              111.0216         -DE/DX =    0.0                 !
 ! A12   A(7,2,8)              107.1993         -DE/DX =    0.0                 !
 ! A13   A(2,3,9)              104.0004         -DE/DX =    0.0                 !
 ! A14   L(1,4,10,2,-1)        180.1578         -DE/DX =    0.0                 !
 ! A15   L(1,4,10,2,-2)        180.2266         -DE/DX =    0.0                 !
 ! D1    D(4,1,2,3)            -58.1378         -DE/DX =    0.0                 !
 ! D2    D(4,1,2,7)             60.5657         -DE/DX =    0.0                 !
 ! D3    D(4,1,2,8)            177.5339         -DE/DX =    0.0                 !
 ! D4    D(5,1,2,3)           -174.7382         -DE/DX =    0.0                 !
 ! D5    D(5,1,2,7)            -56.0347         -DE/DX =    0.0                 !
 ! D6    D(5,1,2,8)             60.9335         -DE/DX =    0.0                 !
 ! D7    D(6,1,2,3)             58.6079         -DE/DX =    0.0                 !
 ! D8    D(6,1,2,7)            177.3113         -DE/DX =    0.0                 !
 ! D9    D(6,1,2,8)            -65.7204         -DE/DX =    0.0                 !
 ! D10   D(1,2,3,9)            -60.3554         -DE/DX =    0.0                 !
 ! D11   D(7,2,3,9)            179.2805         -DE/DX =    0.0                 !
 ! D12   D(8,2,3,9)             62.9219         -DE/DX =    0.0                 !
 --------------------------------------------------------------------------------
 GradGradGradGradGradGradGradGradGradGradGradGradGradGradGradGradGradGrad

 Leave Link  103 at Wed Jan 23 23:55:54 2019, MaxMem=  134217728 cpu:       0.0
 (Enter /home/programs/G09_64/g09/l9999.exe)
 1\1\GINC-AF2CIQUS\Freq\UHF\STO-3G\C2H7O1(2)\RAMOS\23-Jan-2019\0\\#P Ge
 om=AllCheck Guess=TCheck SCRF=Check GenChk UHF/STO-3G Freq\\--pru\\0,2
 \C,-1.2534555747,0.0047708514,-0.1948654177\C,0.115482501,-0.532345055
 1,0.2620873832\O,1.1966008585,0.3783330422,0.0174794852\H,-1.481036840
 8,1.120323554,0.4200623579\H,-2.0713756415,-0.6546422252,0.0787834648\
 H,-1.2866018828,0.2438277655,-1.2543141072\H,0.0950190401,-0.706696755
 8,1.3417424312\H,0.3003288052,-1.5024234251,-0.220323014\H,1.189305194
 3,0.5005562259,-0.9662055198\H,-1.6473719447,1.9186510353,0.861169684\
 \Version=AM64L-G09RevB.01\HF=-152.5639128\S2=0.787189\S2-1=0.\S2A=0.75
 0321\RMSD=2.622e-10\RMSF=7.882e-06\ZeroPoint=0.0916694\Thermal=0.09629
 41\Dipole=-0.3460312,-0.3352074,-0.4564651\DipoleDeriv=-0.0055644,-0.1
 319056,-0.019488,-0.1345598,0.3038059,0.1925708,-0.0546581,0.1770849,0
 .0970712,0.4571485,-0.0673351,-0.0955178,0.0444577,0.2310292,-0.070615
 5,-0.0227114,-0.1064746,0.1585575,-0.4549575,0.0815717,0.0788472,0.064
 9706,-0.4113051,0.0029836,0.1060055,0.0259065,0.0144532,-0.0111289,0.1
 00062,0.0398131,0.1391196,-0.4037047,-0.2190453,0.0650873,-0.2325566,-
 0.0921965,-0.0408146,0.0145723,0.0272278,-0.0049584,-0.0164382,-0.0000
 795,-0.0158632,-0.0302469,0.0148368,-0.0239566,0.0252246,0.0103984,0.0
 291778,-0.0350439,-0.0321291,-0.0086967,0.0263201,-0.0395094,-0.020638
 8,0.0028909,-0.014766,-0.0089903,0.0168266,0.0161454,-0.0047032,0.0135
 103,-0.026419,-0.1041686,0.0699063,0.0535769,-0.0098325,-0.0752036,-0.
 0030888,-0.0029586,-0.022637,-0.001642,0.2134481,-0.0607675,-0.0623942
 ,-0.0637554,0.2190266,0.0143382,-0.0291733,0.0422754,-0.1612665,-0.009
 3672,-0.0342196,-0.0176974,-0.0556291,0.1710072,0.0989202,-0.0323283,0
 .1068179,0.0361147\Polar=13.901204,-0.7614984,18.8548751,-2.2824496,1.
 9783349,16.2952568\PolarDeriv=-0.9956349,1.6267609,1.4988285,-0.733483
 5,0.2323285,0.3357692,1.7219364,1.1450393,-1.7867235,0.2769119,-1.6584
 62,-0.8196498,-0.8439884,0.2881422,-1.4418609,0.3574292,-0.9806769,2.2
 570471,-0.0273027,-1.8753609,-1.7965694,1.3831229,0.0373498,-0.6088193
 ,-2.4639866,-2.3526754,3.1803201,-0.1021071,1.6707144,0.4591116,1.3656
 175,-0.6653757,1.6501051,-0.3079576,1.3986885,-2.7675672,5.2428213,2.2
 098938,0.4487977,0.383453,-0.2650174,0.5544664,1.4085103,2.7482955,1.6
 005056,-0.1119638,0.478421,0.0254374,0.5706092,0.6782847,0.2134432,0.4
 517267,-0.236623,4.3200849,-0.0749632,-0.0591413,0.0416103,0.1364315,0
 .0198098,0.0021936,-0.0722082,-0.1565268,0.4250252,0.1155339,0.2013957
 ,0.0721545,0.2267211,-0.0391189,0.164443,-0.0635121,0.2967519,-0.06054
 36,-4.5566851,-2.2997774,-0.7591819,0.6035418,-0.1284859,-0.1668208,-0
 .8703186,-2.1543801,-2.7648092,-0.0286619,0.7483921,0.1144994,0.205233
 6,-0.0019727,0.6170521,-1.7362884,-1.0967797,0.4554324,-0.403145,-0.02
 05569,-0.234133,-2.1492959,0.0233129,-0.2674778,-0.2842183,-0.4886246,
 1.1072034,0.1105089,-1.6133933,0.4551039,-0.2267777,0.064084,0.0611175
 ,-0.7096947,0.4700646,-5.579695,0.1229008,-0.3116019,0.3462035,2.15471
 57,-0.0890257,-0.000681,0.407649,0.4134867,-1.5602669,-0.0585786,2.033
 9539,-0.4123459,0.0556838,-0.0218577,0.1577953,0.3778524,-1.305723,5.7
 007268,1.0926889,-2.3193887,0.6284415,-1.1088642,0.1880601,0.1586697,-
 0.0498504,1.2114717,-6.4678513,0.1363135,-1.257924,-0.1143067,-0.51544
 44,0.3267263,-0.9541368,0.6472705,-2.4320686,-1.1781141,1.1326501,0.49
 31792,-0.0214543,-1.9830393,0.0299006,0.0168583,0.1016638,0.5640441,1.
 2482392,-0.2053939,-1.9010343,0.1976779,-0.8252722,-0.5868665,-0.50784
 93,1.747547,1.4863061,-5.6753804,-1.5333303,2.5559932,-0.152543,1.3134
 182,-0.0482328,-0.0241584,0.1008227,-0.9301304,5.0183573,-0.1325628,1.
 2979366,0.0223179,-0.0123825,-0.0420457,0.0398907,-0.764373,2.4000602,
 2.5280092\HyperPolar=-12.859922,-1.3764464,-11.1299431,10.3171054,3.82
 82447,-1.997695,7.4294882,-0.3965676,5.4357585,-6.40913\PG=C01 [X(C2H7
 O1)]\NImag=1\\0.71175446,0.12569280,0.42290743,0.00595616,-0.21223430,
 0.70088883,-0.25562691,0.06125677,-0.05444662,0.69387748,0.07797475,-0
 .12392145,0.04003394,0.02668232,0.77858147,-0.04353050,0.03326276,-0.1
 3516798,-0.01882799,0.00371230,0.88065656,-0.04415023,-0.03335826,0.01
 111835,-0.25464292,-0.15835926,-0.01093965,0.34678848,-0.00381419,0.00
 813353,-0.00138313,-0.16313392,-0.20655814,-0.00003072,0.23858122,0.26
 688026,-0.00743964,-0.00782682,0.00746540,0.06756499,0.06343427,-0.140
 44049,-0.02345986,-0.11069891,0.75265691,-0.04113262,-0.03909219,-0.01
 880745,-0.00465828,0.02455006,0.01279355,0.00263221,-0.00080676,0.0000
 6450,0.06112270,-0.04323063,0.12440513,0.09284699,0.00350305,-0.024004
 39,-0.01208231,-0.00206190,0.00177616,0.00026913,0.04683709,-0.1525491
 7,-0.02224647,0.09683158,-0.00235217,-0.00024176,-0.00139176,-0.000278
 31,-0.00031170,0.00053486,0.00000208,0.02703280,-0.12288816,0.00400869
 ,-0.29007605,-0.18323314,0.07214876,-0.01909708,-0.02544493,0.01100478
 ,-0.00603124,0.00215105,-0.00226305,0.00362069,0.01172603,0.00250195,0
 .30027890,-0.19374856,-0.20504448,0.07875307,0.01607863,0.01347873,-0.
 00521380,0.00440017,0.00000509,0.00138172,-0.01327799,-0.02233263,0.00
 013516,0.19217618,0.20775496,0.06398248,0.06961193,-0.09359012,-0.0091
 8181,-0.00924734,0.00479193,-0.00378820,0.00052893,-0.00018558,-0.0083
 0837,-0.01832955,-0.00191533,-0.07603607,-0.07339481,0.08937841,-0.077
 67926,-0.00448115,-0.01005680,0.00352805,0.00722044,-0.04190616,0.0033
 6128,0.00057917,0.00072423,-0.00042326,0.00147783,0.00544400,0.0060577
 5,-0.00333043,0.03362698,0.07089401,-0.00503633,-0.06734710,0.08075945
 ,-0.00118105,-0.00188887,0.01683854,-0.00057569,0.00004476,-0.00089113
 ,0.00329197,-0.01118005,-0.03214584,0.00457345,-0.00069209,0.02668895,
 -0.00095992,0.07207197,-0.00924378,0.09683708,-0.44304492,0.00335802,-
 0.00038761,-0.00408172,0.00092453,-0.00038610,0.00070744,0.00055986,0.
 00064643,-0.01022260,-0.00578239,-0.00438632,-0.00158321,0.01190352,-0
 .09505913,0.45427551,0.00208900,0.00638589,-0.04134807,-0.07373911,0.0
 0105527,-0.00069851,0.00054984,-0.00598224,0.03962038,0.00112048,-0.00
 086717,0.00002023,0.00195851,-0.00053905,0.00084204,-0.00704672,0.0029
 3667,-0.00065013,0.07939695,0.00029036,-0.00158913,0.01717810,0.000632
 19,-0.08829900,0.04828674,-0.00093166,-0.00292213,0.03383071,-0.000736
 71,0.00082832,0.00047660,-0.00024857,0.00027701,-0.00067973,0.00258491
 ,0.00005887,0.00061874,0.00497083,0.08483845,0.00165913,0.00018929,-0.
 00518160,0.00487436,0.04946905,-0.44208022,0.00412462,0.00416755,-0.00
 326496,0.00059562,-0.00079718,0.00025743,0.00025667,-0.00030645,0.0007
 4644,-0.00053040,-0.00004892,0.00086275,-0.00889573,-0.06123061,0.4582
 1347,-0.00916418,0.03324048,0.01535705,-0.08160248,0.06064888,0.032344
 20,-0.00327736,-0.04192249,-0.01405088,-0.00425111,0.00433478,-0.00012
 800,0.00222253,-0.00119120,-0.00003539,0.00149382,-0.00143471,0.000093
 82,0.00193387,-0.00033667,-0.00192260,0.09035234,0.00532800,-0.0093651
 4,-0.00747703,0.06033002,-0.34317505,-0.13874715,-0.01168749,-0.029610
 88,-0.01024656,0.00057233,0.00141298,0.00099856,-0.00008188,0.00064086
 ,0.00030569,-0.00133283,0.00106424,-0.00012655,-0.00154141,0.01072283,
 0.00824902,-0.05350850,0.36649896,-0.00679685,0.01357115,0.00769316,0.
 02822143,-0.13390590,-0.15521054,0.00084467,0.01025660,0.00896611,-0.0
 0198967,0.00231838,0.00099230,0.00040342,-0.00018144,-0.00002870,0.000
 88452,-0.00037040,0.00078185,0.00914330,-0.04024308,-0.01164718,-0.029
 44425,0.14792194,0.14666159,0.00190975,0.00048733,0.00201083,-0.008861
 98,-0.01230640,0.06036484,-0.04511493,-0.02578534,-0.06074573,-0.00018
 318,-0.00019139,-0.00010486,0.00042052,0.00002677,-0.00020452,-0.00018
 533,-0.00005181,-0.00061049,-0.00625472,-0.00611962,-0.00010606,0.0019
 2989,0.00200055,-0.00135888,0.05632641,0.00166297,0.00216348,-0.001871
 33,-0.00215173,-0.01175821,0.05069678,-0.03645596,-0.03741572,0.030839
 85,0.00018538,-0.00034798,-0.00029792,0.00055749,-0.00033485,0.0001155
 1,-0.00046254,0.00036202,-0.00002951,-0.00655653,-0.00392944,-0.000047
 07,0.00146842,0.00218485,0.00122784,0.04178704,0.04901176,-0.00153105,
 -0.00213020,0.00192562,-0.02058481,-0.01592348,-0.01002480,0.02122220,
 0.09728321,-0.62586756,-0.00004590,0.00029871,0.00003013,-0.00067059,0
 .00012493,0.00016022,0.00068007,-0.00022137,0.00020803,0.00176261,0.00
 192590,0.00190834,-0.00156644,-0.00056372,0.00219825,0.00070821,-0.080
 68965,0.62948396,0.00207606,0.03310147,0.01806780,0.00082323,-0.002021
 14,-0.00060457,-0.00011512,0.00013351,-0.00001492,-0.01784762,-0.02152
 769,-0.01196617,0.00064549,-0.00059452,-0.00089714,-0.00000034,-0.0015
 6261,-0.00055295,-0.00000811,-0.00010506,-0.00005561,0.00036267,-0.000
 07880,0.00009230,0.00001356,-0.00003455,0.00002570,0.01405018,0.034880
 81,-0.15034228,-0.08660577,-0.00201628,0.00754492,0.00327685,0.0004488
 2,-0.00033292,-0.00009227,-0.02152320,0.08199164,0.05774690,-0.0021756
 9,0.00624740,0.00440042,-0.00129548,0.00750626,0.00227298,0.00013774,0
 .00001423,0.00035532,-0.00129899,-0.00037366,-0.00059509,0.00015287,0.
 00006409,-0.00010433,-0.00731061,0.04768032,0.01919051,-0.08811247,-0.
 03863622,-0.00073579,0.00420652,0.00183556,0.00026505,-0.00027230,-0.0
 0003935,-0.01189493,0.05771756,0.00947779,-0.00156348,0.00308793,0.002
 22594,-0.00076996,0.00444985,0.00209688,0.00020389,-0.00016336,0.00018
 552,-0.00064752,-0.00031419,-0.00040684,0.00004667,0.00005548,-0.00002
 220,-0.00409443,0.01934499,0.02328292\\-0.00000620,0.00002452,0.000013
 26,-0.00000945,-0.00000495,-0.00000606,0.00000159,0.00000184,-0.000007
 55,0.00000795,-0.00001260,-0.00000466,0.00000542,-0.00000902,-0.000004
 00,0.00000526,-0.00001303,-0.00000411,-0.00000247,-0.00000045,0.000000
 39,0.00000065,-0.00000008,0.00000019,0.00000068,0.00000160,0.00000539,
 -0.00000343,0.00001218,0.00000714\\\@


 Age does not diminish the extreme disappointment of
 having a scoop of ice cream fall from the cone.
 -- Jim Fiebig
 Job cpu time:  0 days  0 hours  0 minutes  2.4 seconds.
 File lengths (MBytes):  RWF=      5 Int=      0 D2E=      0 Chk=      1 Scr=      1
 Normal termination of Gaussian 09 at Wed Jan 23 23:55:54 2019.
