 Entering Gaussian System, Link 0=/home/programs/g09/g09
 Initial command:
 /home/programs/G09_64/g09/l1.exe /scratch/Gau-20703.inp -scrdir=/scratch/
 Entering Link 1 = /home/programs/G09_64/g09/l1.exe PID=     20705.
  
 Copyright (c) 1988,1990,1992,1993,1995,1998,2003,2009,2010,
            Gaussian, Inc.  All Rights Reserved.
  
 This is part of the Gaussian(R) 09 program.  It is based on
 the Gaussian(R) 03 system (copyright 2003, Gaussian, Inc.),
 the Gaussian(R) 98 system (copyright 1998, Gaussian, Inc.),
 the Gaussian(R) 94 system (copyright 1995, Gaussian, Inc.),
 the Gaussian 92(TM) system (copyright 1992, Gaussian, Inc.),
 the Gaussian 90(TM) system (copyright 1990, Gaussian, Inc.),
 the Gaussian 88(TM) system (copyright 1988, Gaussian, Inc.),
 the Gaussian 86(TM) system (copyright 1986, Carnegie Mellon
 University), and the Gaussian 82(TM) system (copyright 1983,
 Carnegie Mellon University). Gaussian is a federally registered
 trademark of Gaussian, Inc.
  
 This software contains proprietary and confidential information,
 including trade secrets, belonging to Gaussian, Inc.
  
 This software is provided under written license and may be
 used, copied, transmitted, or stored only in accord with that
 written license.
  
 The following legend is applicable only to US Government
 contracts under FAR:
  
                    RESTRICTED RIGHTS LEGEND
  
 Use, reproduction and disclosure by the US Government is
 subject to restrictions as set forth in subparagraphs (a)
 and (c) of the Commercial Computer Software - Restricted
 Rights clause in FAR 52.227-19.
  
 Gaussian, Inc.
 340 Quinnipiac St., Bldg. 40, Wallingford CT 06492
  
  
 ---------------------------------------------------------------
 Warning -- This program may not be used in any manner that
 competes with the business of Gaussian, Inc. or will provide
 assistance to any competitor of Gaussian, Inc.  The licensee
 of this program is prohibited from giving any competitor of
 Gaussian, Inc. access to this program.  By using this program,
 the user acknowledges that Gaussian, Inc. is engaged in the
 business of creating and licensing software in the field of
 computational chemistry and represents and warrants to the
 licensee that it is not a competitor of Gaussian, Inc. and that
 it will not use this program in any manner prohibited above.
 ---------------------------------------------------------------
  

 Cite this work as:
 Gaussian 09, Revision B.01,
 M. J. Frisch, G. W. Trucks, H. B. Schlegel, G. E. Scuseria, 
 M. A. Robb, J. R. Cheeseman, G. Scalmani, V. Barone, B. Mennucci, 
 G. A. Petersson, H. Nakatsuji, M. Caricato, X. Li, H. P. Hratchian, 
 A. F. Izmaylov, J. Bloino, G. Zheng, J. L. Sonnenberg, M. Hada, 
 M. Ehara, K. Toyota, R. Fukuda, J. Hasegawa, M. Ishida, T. Nakajima, 
 Y. Honda, O. Kitao, H. Nakai, T. Vreven, J. A. Montgomery, Jr., 
 J. E. Peralta, F. Ogliaro, M. Bearpark, J. J. Heyd, E. Brothers, 
 K. N. Kudin, V. N. Staroverov, T. Keith, R. Kobayashi, J. Normand, 
 K. Raghavachari, A. Rendell, J. C. Burant, S. S. Iyengar, J. Tomasi, 
 M. Cossi, N. Rega, J. M. Millam, M. Klene, J. E. Knox, J. B. Cross, 
 V. Bakken, C. Adamo, J. Jaramillo, R. Gomperts, R. E. Stratmann, 
 O. Yazyev, A. J. Austin, R. Cammi, C. Pomelli, J. W. Ochterski, 
 R. L. Martin, K. Morokuma, V. G. Zakrzewski, G. A. Voth, 
 P. Salvador, J. J. Dannenberg, S. Dapprich, A. D. Daniels, 
 O. Farkas, J. B. Foresman, J. V. Ortiz, J. Cioslowski, 
 and D. J. Fox, Gaussian, Inc., Wallingford CT, 2010.
 
 ******************************************
 Gaussian 09:  AM64L-G09RevB.01 12-Aug-2010
                23-Jan-2019 
 ******************************************
 %nproc=1
 Will use up to    1 processors via shared memory.
 %mem=1GB
 %chk=kk.chk
 ----------------------------------------------------------------------
 #p hf/sto-3g scf=verytight opt=(ts,noeigentest,calcfc) NoSymm freq uni
 ts=au
 ----------------------------------------------------------------------
 1/5=1,10=4,11=1,18=20,20=1,38=1/1,3;
 2/9=110,12=2,15=1,17=6,18=5,40=1/2;
 3/6=3,11=9,16=1,25=1,30=1,71=2/1,2,3;
 4//1;
 5/5=2,17=3,38=5/2;
 8/6=4,10=90,11=11/1;
 11/6=1,8=1,9=11,15=111,16=1,31=1/1,2,10;
 10/6=1,7=6,13=1,31=1/2;
 6/7=2,8=2,9=2,10=2,28=1/1;
 7/10=1,18=20,25=1,30=1/1,2,3,16;
 1/5=1,10=4,11=1,18=20/3(2);
 2/9=110,15=1/2;
 99//99;
 2/9=110,15=1/2;
 3/6=3,11=9,16=1,25=1,30=1,71=1/1,2,3;
 4/5=5,16=3/1;
 5/5=2,17=3,38=5/2;
 7/30=1/1,2,3,16;
 1/5=1,11=1,18=20/3(-5);
 2/9=110,15=1/2;
 6/7=2,8=2,9=2,10=2,19=2,28=1/1;
 99/9=1/99;
 Leave Link    1 at Wed Jan 23 23:49:33 2019, MaxMem=  134217728 cpu:       0.0
 (Enter /home/programs/G09_64/g09/l101.exe)
 -----
 --pru
 -----
 Symbolic Z-matrix:
 Charge =  0 Multiplicity = 2
 C                     2.30277  -0.13216  -0.50737 
 C                    -0.19192  -1.00766   0.46805 
 O                    -2.17163   0.66805  -0.14117 
 H                     2.75209   2.09843   0.77834 
 H                     3.92037  -1.26884   0.02111 
 H                     2.31244   0.46684  -2.46345 
 H                    -0.09193  -1.32857   2.50459 
 H                    -0.70532  -2.80585  -0.39503 
 H                    -1.79256   2.28504   0.57679 
 H                     2.93671   3.52225   1.68626 
 
 NAtoms=     10 NQM=     10 NQMF=      0 NMic=      0 NMicF=      0 NTot=     10.
                    Isotopes and Nuclear Properties:
 (Nuclear quadrupole moments (NQMom) in fm**2, nuclear magnetic moments (NMagM)
  in nuclear magnetons)

  Atom         1           2           3           4           5           6           7           8           9          10
 IAtWgt=          12          12          16           1           1           1           1           1           1           1
 AtmWgt=  12.0000000  12.0000000  15.9949146   1.0078250   1.0078250   1.0078250   1.0078250   1.0078250   1.0078250   1.0078250
 NucSpn=           0           0           0           1           1           1           1           1           1           1
 AtZEff=   0.0000000   0.0000000   0.0000000   0.0000000   0.0000000   0.0000000   0.0000000   0.0000000   0.0000000   0.0000000
 NQMom=    0.0000000   0.0000000   0.0000000   0.0000000   0.0000000   0.0000000   0.0000000   0.0000000   0.0000000   0.0000000
 NMagM=    0.0000000   0.0000000   0.0000000   2.7928460   2.7928460   2.7928460   2.7928460   2.7928460   2.7928460   2.7928460
 Leave Link  101 at Wed Jan 23 23:49:33 2019, MaxMem=  134217728 cpu:       0.1
 (Enter /home/programs/G09_64/g09/l103.exe)

 GradGradGradGradGradGradGradGradGradGradGradGradGradGradGradGradGradGrad
 Berny optimization.
 Initialization pass.
                           ----------------------------
                           !    Initial Parameters    !
                           ! (Angstroms and Degrees)  !
 --------------------------                            --------------------------
 ! Name  Definition              Value          Derivative Info.                !
 --------------------------------------------------------------------------------
 ! R1    R(1,2)                  1.4912         calculate D2E/DX2 analytically  !
 ! R2    R(1,4)                  1.383          calculate D2E/DX2 analytically  !
 ! R3    R(1,5)                  1.0829         calculate D2E/DX2 analytically  !
 ! R4    R(1,6)                  1.0826         calculate D2E/DX2 analytically  !
 ! R5    R(2,3)                  1.4099         calculate D2E/DX2 analytically  !
 ! R6    R(2,7)                  1.0923         calculate D2E/DX2 analytically  !
 ! R7    R(2,8)                  1.0899         calculate D2E/DX2 analytically  !
 ! R8    R(3,9)                  0.9575         calculate D2E/DX2 analytically  !
 ! R9    R(4,10)                 0.8989         calculate D2E/DX2 analytically  !
 ! A1    A(2,1,4)              104.3044         calculate D2E/DX2 analytically  !
 ! A2    A(2,1,5)              115.9631         calculate D2E/DX2 analytically  !
 ! A3    A(2,1,6)              115.2207         calculate D2E/DX2 analytically  !
 ! A4    A(4,1,5)              102.1882         calculate D2E/DX2 analytically  !
 ! A5    A(4,1,6)              102.6895         calculate D2E/DX2 analytically  !
 ! A6    A(5,1,6)              113.9425         calculate D2E/DX2 analytically  !
 ! A7    A(1,2,3)              112.5349         calculate D2E/DX2 analytically  !
 ! A8    A(1,2,7)              110.2995         calculate D2E/DX2 analytically  !
 ! A9    A(1,2,8)              110.2959         calculate D2E/DX2 analytically  !
 ! A10   A(3,2,7)              111.0626         calculate D2E/DX2 analytically  !
 ! A11   A(3,2,8)              105.5499         calculate D2E/DX2 analytically  !
 ! A12   A(7,2,8)              106.8457         calculate D2E/DX2 analytically  !
 ! A13   A(2,3,9)              108.4015         calculate D2E/DX2 analytically  !
 ! A14   L(1,4,10,2,-1)        175.5749         calculate D2E/DX2 analytically  !
 ! A15   L(1,4,10,2,-2)        179.2257         calculate D2E/DX2 analytically  !
 ! D1    D(4,1,2,3)             64.0778         calculate D2E/DX2 analytically  !
 ! D2    D(4,1,2,7)            -60.5571         calculate D2E/DX2 analytically  !
 ! D3    D(4,1,2,8)           -178.3476         calculate D2E/DX2 analytically  !
 ! D4    D(5,1,2,3)            175.5774         calculate D2E/DX2 analytically  !
 ! D5    D(5,1,2,7)             50.9425         calculate D2E/DX2 analytically  !
 ! D6    D(5,1,2,8)            -66.848          calculate D2E/DX2 analytically  !
 ! D7    D(6,1,2,3)            -47.6798         calculate D2E/DX2 analytically  !
 ! D8    D(6,1,2,7)           -172.3147         calculate D2E/DX2 analytically  !
 ! D9    D(6,1,2,8)             69.8949         calculate D2E/DX2 analytically  !
 ! D10   D(1,2,3,9)            -59.3533         calculate D2E/DX2 analytically  !
 ! D11   D(7,2,3,9)             64.8612         calculate D2E/DX2 analytically  !
 ! D12   D(8,2,3,9)           -179.7026         calculate D2E/DX2 analytically  !
 --------------------------------------------------------------------------------
 Trust Radius=3.00D-01 FncErr=1.00D-07 GrdErr=1.00D-07
 Number of steps in this run=     46 maximum allowed number of steps=    100.
 Search for a saddle point of order  1.
 GradGradGradGradGradGradGradGradGradGradGradGradGradGradGradGradGradGrad

 Leave Link  103 at Wed Jan 23 23:49:33 2019, MaxMem=  134217728 cpu:       0.0
 (Enter /home/programs/G09_64/g09/l202.exe)
                          Input orientation:                          
 ---------------------------------------------------------------------
 Center     Atomic      Atomic             Coordinates (Angstroms)
 Number     Number       Type             X           Y           Z
 ---------------------------------------------------------------------
      1          6           0        1.218574   -0.069937   -0.268487
      2          6           0       -0.101558   -0.533232    0.247680
      3          8           0       -1.149178    0.353516   -0.074703
      4          1           0        1.456345    1.110441    0.411881
      5          1           0        2.074568   -0.671443    0.011173
      6          1           0        1.223690    0.247041   -1.303601
      7          1           0       -0.048645   -0.703049    1.325374
      8          1           0       -0.373240   -1.484791   -0.209041
      9          1           0       -0.948580    1.209193    0.305223
     10          1           0        1.554039    1.863894    0.892329
 ---------------------------------------------------------------------
                    Distance matrix (angstroms):
                    1          2          3          4          5
     1  C    0.000000
     2  C    1.491247   0.000000
     3  O    2.413113   1.409880   0.000000
     4  H    1.383014   2.270613   2.756529   0.000000
     5  H    1.082933   2.193299   3.383852   1.928180   0.000000
     6  H    1.082572   2.184394   2.674328   1.934545   1.815553
     7  H    2.132385   1.092273   2.070680   2.527491   2.497230
     8  H    2.130544   1.089895   1.999875   3.235453   2.588782
     9  H    2.581060   1.938247   0.957479   2.409314   3.572490
    10  H    2.280292   2.983754   3.244037   0.898925   2.734103
                    6          7          8          9         10
     6  H    0.000000
     7  H    3.071321   0.000000
     8  H    2.597593   1.752402   0.000000
     9  H    2.869287   2.346755   2.802326   0.000000
    10  H    2.746898   3.057012   4.017601   2.652627   0.000000
 Symmetry turned off by external request.
 Stoichiometry    C2H7O(2)
 Framework group  C1[X(C2H7O)]
 Deg. of freedom    24
 Full point group                 C1      NOp   1
 Rotational constants (GHZ):     24.5228696      8.8313178      7.6981693
 Leave Link  202 at Wed Jan 23 23:49:33 2019, MaxMem=  134217728 cpu:       0.0
 (Enter /home/programs/G09_64/g09/l301.exe)
 Standard basis: STO-3G (5D, 7F)
 Ernie: Thresh=  0.10000D-02 Tol=  0.10000D-05 Strict=F.
 Integral buffers will be    131072 words long.
 Raffenetti 2 integral format.
 Two-electron integral symmetry is turned off.
    22 basis functions,    66 primitive gaussians,    22 cartesian basis functions
    14 alpha electrons       13 beta electrons
       nuclear repulsion energy        86.9108611291 Hartrees.
 IExCor=    0 DFT=F Ex=HF Corr=None ExCW=0 ScaHFX=  1.000000
 ScaDFX=  1.000000  1.000000  1.000000  1.000000 ScalE2=  1.000000  1.000000
 IRadAn=      0 IRanWt=     -1 IRanGd=            0 ICorTp=0
 NAtoms=   10 NActive=   10 NUniq=   10 SFac= 1.00D+00 NAtFMM=   50 NAOKFM=F Big=F
 Leave Link  301 at Wed Jan 23 23:49:33 2019, MaxMem=  134217728 cpu:       0.1
 (Enter /home/programs/G09_64/g09/l302.exe)
 NPDir=0 NMtPBC=     1 NCelOv=     1 NCel=       1 NClECP=     1 NCelD=      1
         NCelK=      1 NCelE2=     1 NClLst=     1 CellRange=     0.0.
 One-electron integrals computed using PRISM.
 NBasis=    22 RedAO= T  NBF=    22
 NBsUse=    22 1.00D-06 NBFU=    22
 Leave Link  302 at Wed Jan 23 23:49:34 2019, MaxMem=  134217728 cpu:       0.2
 (Enter /home/programs/G09_64/g09/l303.exe)
 DipDrv:  MaxL=1.
 Leave Link  303 at Wed Jan 23 23:49:34 2019, MaxMem=  134217728 cpu:       0.1
 (Enter /home/programs/G09_64/g09/l401.exe)
 Harris functional with IExCor=  205 diagonalized for initial guess.
 ExpMin= 1.69D-01 ExpMax= 1.31D+02 ExpMxC= 1.31D+02 IAcc=1 IRadAn=         1 AccDes= 0.00D+00
 HarFok:  IExCor=  205 AccDes= 0.00D+00 IRadAn=         1 IDoV= 1
 ScaDFX=  1.000000  1.000000  1.000000  1.000000
 FoFCou: FMM=F IPFlag=           0 FMFlag=      100000 FMFlg1=           0
         NFxFlg=           0 DoJE=T BraDBF=F KetDBF=T FulRan=T
         Omega=  0.000000  0.000000  1.000000  0.000000  0.000000 ICntrl=     500 IOpCl=  0
         NMat0=    1 NMatS0=    1 NMatT0=    0 NMatD0=    1 NMtDS0=    0 NMtDT0=    0
         I1Cent=           4 NGrid=           0.
 Symmetry not used in FoFCou.
 Harris En= -152.782463904792    
 Initial guess <Sx>= 0.0000 <Sy>= 0.0000 <Sz>= 0.5000 <S**2>= 0.7500 S= 0.5000
 Leave Link  401 at Wed Jan 23 23:49:34 2019, MaxMem=  134217728 cpu:       0.3
 (Enter /home/programs/G09_64/g09/l502.exe)
 UHF open shell SCF:
 Requested convergence on RMS density matrix=1.00D-08 within 128 cycles.
 Requested convergence on MAX density matrix=1.00D-06.
 Requested convergence on             energy=1.00D-06.
 No special actions if energy rises.
 Using DIIS extrapolation, IDIIS=  1040.
 Two-electron integral symmetry not used.
 Keep R1 and R2 ints in memory in canonical form, NReq=884165.
 IEnd=       19882 IEndB=       19882 NGot=   134217728 MDV=   134150703
 LenX=   134150703 LenY=   134149778
 Symmetry not used in FoFDir.
 MinBra= 0 MaxBra= 1 Meth= 1.
 IRaf=       0 NMat=   1 IRICut=       1 DoRegI=T DoRafI=F ISym2E= 0 JSym2E=0.

 Cycle   1  Pass 1  IDiag  1:
 E= -152.466249598736    
 DIIS: error= 3.97D-02 at cycle   1 NSaved=   1.
 NSaved= 1 IEnMin= 1 EnMin= -152.466249598736     IErMin= 1 ErrMin= 3.97D-02
 ErrMax= 3.97D-02 EMaxC= 1.00D-01 BMatC= 2.95D-01 BMatP= 2.95D-01
 IDIUse=3 WtCom= 6.03D-01 WtEn= 3.97D-01
 Coeff-Com:  0.100D+01
 Coeff-En:   0.100D+01
 Coeff:      0.100D+01
 Gap=     0.906 Goal=   None    Shift=    0.000
 Gap=     0.504 Goal=   None    Shift=    0.000
 GapD=    0.504 DampG=2.000 DampE=0.500 DampFc=1.0000 IDamp=-1.
 RMSDP=1.74D-02 MaxDP=1.27D-01              OVMax= 0.00D+00

 Cycle   2  Pass 1  IDiag  1:
 E= -152.553422120332     Delta-E=       -0.087172521596 Rises=F Damp=F
 DIIS: error= 1.03D-02 at cycle   2 NSaved=   2.
 NSaved= 2 IEnMin= 2 EnMin= -152.553422120332     IErMin= 2 ErrMin= 1.03D-02
 ErrMax= 1.03D-02 EMaxC= 1.00D-01 BMatC= 1.36D-02 BMatP= 2.95D-01
 IDIUse=3 WtCom= 8.97D-01 WtEn= 1.03D-01
 Coeff-Com:  0.533D-01 0.947D+00
 Coeff-En:   0.000D+00 0.100D+01
 Coeff:      0.478D-01 0.952D+00
 Gap=     0.881 Goal=   None    Shift=    0.000
 Gap=     0.568 Goal=   None    Shift=    0.000
 RMSDP=4.30D-03 MaxDP=4.01D-02 DE=-8.72D-02 OVMax= 0.00D+00

 Cycle   3  Pass 1  IDiag  1:
 E= -152.559123855793     Delta-E=       -0.005701735461 Rises=F Damp=F
 DIIS: error= 4.91D-03 at cycle   3 NSaved=   3.
 NSaved= 3 IEnMin= 3 EnMin= -152.559123855793     IErMin= 3 ErrMin= 4.91D-03
 ErrMax= 4.91D-03 EMaxC= 1.00D-01 BMatC= 2.04D-03 BMatP= 1.36D-02
 IDIUse=3 WtCom= 9.51D-01 WtEn= 4.91D-02
 Coeff-Com: -0.364D-01-0.127D+00 0.116D+01
 Coeff-En:   0.000D+00 0.000D+00 0.100D+01
 Coeff:     -0.346D-01-0.120D+00 0.116D+01
 Gap=     0.868 Goal=   None    Shift=    0.000
 Gap=     0.587 Goal=   None    Shift=    0.000
 RMSDP=1.84D-03 MaxDP=2.61D-02 DE=-5.70D-03 OVMax= 0.00D+00

 Cycle   4  Pass 1  IDiag  1:
 E= -152.560410317491     Delta-E=       -0.001286461698 Rises=F Damp=F
 DIIS: error= 2.07D-03 at cycle   4 NSaved=   4.
 NSaved= 4 IEnMin= 4 EnMin= -152.560410317491     IErMin= 4 ErrMin= 2.07D-03
 ErrMax= 2.07D-03 EMaxC= 1.00D-01 BMatC= 3.82D-04 BMatP= 2.04D-03
 IDIUse=3 WtCom= 9.79D-01 WtEn= 2.07D-02
 Coeff-Com:  0.472D-02-0.755D-01-0.452D+00 0.152D+01
 Coeff-En:   0.000D+00 0.000D+00 0.000D+00 0.100D+01
 Coeff:      0.463D-02-0.739D-01-0.443D+00 0.151D+01
 Gap=     0.877 Goal=   None    Shift=    0.000
 Gap=     0.588 Goal=   None    Shift=    0.000
 RMSDP=1.24D-03 MaxDP=1.75D-02 DE=-1.29D-03 OVMax= 0.00D+00

 Cycle   5  Pass 1  IDiag  1:
 E= -152.560714787836     Delta-E=       -0.000304470345 Rises=F Damp=F
 DIIS: error= 5.26D-04 at cycle   5 NSaved=   5.
 NSaved= 5 IEnMin= 5 EnMin= -152.560714787836     IErMin= 5 ErrMin= 5.26D-04
 ErrMax= 5.26D-04 EMaxC= 1.00D-01 BMatC= 2.78D-05 BMatP= 3.82D-04
 IDIUse=3 WtCom= 9.95D-01 WtEn= 5.26D-03
 Coeff-Com:  0.947D-03 0.327D-01 0.484D-01-0.437D+00 0.135D+01
 Coeff-En:   0.000D+00 0.000D+00 0.000D+00 0.000D+00 0.100D+01
 Coeff:      0.942D-03 0.326D-01 0.482D-01-0.435D+00 0.135D+01
 Gap=     0.877 Goal=   None    Shift=    0.000
 Gap=     0.590 Goal=   None    Shift=    0.000
 RMSDP=3.14D-04 MaxDP=2.66D-03 DE=-3.04D-04 OVMax= 0.00D+00

 Cycle   6  Pass 1  IDiag  1:
 E= -152.560738363994     Delta-E=       -0.000023576158 Rises=F Damp=F
 DIIS: error= 2.10D-04 at cycle   6 NSaved=   6.
 NSaved= 6 IEnMin= 6 EnMin= -152.560738363994     IErMin= 6 ErrMin= 2.10D-04
 ErrMax= 2.10D-04 EMaxC= 1.00D-01 BMatC= 5.33D-06 BMatP= 2.78D-05
 IDIUse=3 WtCom= 9.98D-01 WtEn= 2.10D-03
 Coeff-Com: -0.128D-02-0.561D-02 0.409D-01 0.690D-03-0.741D+00 0.171D+01
 Coeff-En:   0.000D+00 0.000D+00 0.000D+00 0.000D+00 0.000D+00 0.100D+01
 Coeff:     -0.128D-02-0.560D-02 0.408D-01 0.689D-03-0.739D+00 0.170D+01
 Gap=     0.877 Goal=   None    Shift=    0.000
 Gap=     0.589 Goal=   None    Shift=    0.000
 RMSDP=1.92D-04 MaxDP=1.56D-03 DE=-2.36D-05 OVMax= 0.00D+00

 Cycle   7  Pass 1  IDiag  1:
 E= -152.560743895761     Delta-E=       -0.000005531767 Rises=F Damp=F
 DIIS: error= 5.45D-05 at cycle   7 NSaved=   7.
 NSaved= 7 IEnMin= 7 EnMin= -152.560743895761     IErMin= 7 ErrMin= 5.45D-05
 ErrMax= 5.45D-05 EMaxC= 1.00D-01 BMatC= 4.27D-07 BMatP= 5.33D-06
 IDIUse=1 WtCom= 1.00D+00 WtEn= 0.00D+00
 Coeff-Com:  0.501D-03-0.968D-03-0.264D-01 0.508D-01 0.203D+00-0.816D+00
 Coeff-Com:  0.159D+01
 Coeff:      0.501D-03-0.968D-03-0.264D-01 0.508D-01 0.203D+00-0.816D+00
 Coeff:      0.159D+01
 Gap=     0.877 Goal=   None    Shift=    0.000
 Gap=     0.590 Goal=   None    Shift=    0.000
 RMSDP=5.53D-05 MaxDP=4.01D-04 DE=-5.53D-06 OVMax= 0.00D+00

 Cycle   8  Pass 1  IDiag  1:
 E= -152.560744312379     Delta-E=       -0.000000416618 Rises=F Damp=F
 DIIS: error= 2.42D-05 at cycle   8 NSaved=   8.
 NSaved= 8 IEnMin= 8 EnMin= -152.560744312379     IErMin= 8 ErrMin= 2.42D-05
 ErrMax= 2.42D-05 EMaxC= 1.00D-01 BMatC= 3.59D-08 BMatP= 4.27D-07
 IDIUse=1 WtCom= 1.00D+00 WtEn= 0.00D+00
 Coeff-Com: -0.301D-04 0.369D-03 0.326D-02-0.928D-02-0.300D-02 0.700D-01
 Coeff-Com: -0.302D+00 0.124D+01
 Coeff:     -0.301D-04 0.369D-03 0.326D-02-0.928D-02-0.300D-02 0.700D-01
 Coeff:     -0.302D+00 0.124D+01
 Gap=     0.877 Goal=   None    Shift=    0.000
 Gap=     0.590 Goal=   None    Shift=    0.000
 RMSDP=1.05D-05 MaxDP=7.80D-05 DE=-4.17D-07 OVMax= 0.00D+00

 Cycle   9  Pass 1  IDiag  1:
 E= -152.560744343759     Delta-E=       -0.000000031380 Rises=F Damp=F
 DIIS: error= 1.30D-05 at cycle   9 NSaved=   9.
 NSaved= 9 IEnMin= 9 EnMin= -152.560744343759     IErMin= 9 ErrMin= 1.30D-05
 ErrMax= 1.30D-05 EMaxC= 1.00D-01 BMatC= 1.15D-08 BMatP= 3.59D-08
 IDIUse=1 WtCom= 1.00D+00 WtEn= 0.00D+00
 Coeff-Com: -0.132D-03 0.110D-03 0.668D-02-0.117D-01-0.594D-01 0.217D+00
 Coeff-Com: -0.345D+00-0.677D+00 0.187D+01
 Coeff:     -0.132D-03 0.110D-03 0.668D-02-0.117D-01-0.594D-01 0.217D+00
 Coeff:     -0.345D+00-0.677D+00 0.187D+01
 Gap=     0.877 Goal=   None    Shift=    0.000
 Gap=     0.590 Goal=   None    Shift=    0.000
 RMSDP=1.10D-05 MaxDP=7.38D-05 DE=-3.14D-08 OVMax= 0.00D+00

 Cycle  10  Pass 1  IDiag  1:
 E= -152.560744358550     Delta-E=       -0.000000014792 Rises=F Damp=F
 DIIS: error= 2.52D-06 at cycle  10 NSaved=  10.
 NSaved=10 IEnMin=10 EnMin= -152.560744358550     IErMin=10 ErrMin= 2.52D-06
 ErrMax= 2.52D-06 EMaxC= 1.00D-01 BMatC= 6.55D-10 BMatP= 1.15D-08
 IDIUse=1 WtCom= 1.00D+00 WtEn= 0.00D+00
 Coeff-Com:  0.560D-04-0.986D-04-0.308D-02 0.579D-02 0.241D-01-0.953D-01
 Coeff-Com:  0.174D+00 0.120D+00-0.748D+00 0.152D+01
 Coeff:      0.560D-04-0.986D-04-0.308D-02 0.579D-02 0.241D-01-0.953D-01
 Coeff:      0.174D+00 0.120D+00-0.748D+00 0.152D+01
 Gap=     0.877 Goal=   None    Shift=    0.000
 Gap=     0.590 Goal=   None    Shift=    0.000
 RMSDP=2.74D-06 MaxDP=1.86D-05 DE=-1.48D-08 OVMax= 0.00D+00

 Cycle  11  Pass 1  IDiag  1:
 E= -152.560744359338     Delta-E=       -0.000000000787 Rises=F Damp=F
 DIIS: error= 4.63D-07 at cycle  11 NSaved=  11.
 NSaved=11 IEnMin=11 EnMin= -152.560744359338     IErMin=11 ErrMin= 4.63D-07
 ErrMax= 4.63D-07 EMaxC= 1.00D-01 BMatC= 3.15D-11 BMatP= 6.55D-10
 IDIUse=1 WtCom= 1.00D+00 WtEn= 0.00D+00
 Coeff-Com: -0.273D-04 0.499D-04 0.153D-02-0.285D-02-0.118D-01 0.470D-01
 Coeff-Com: -0.882D-01-0.431D-01 0.365D+00-0.890D+00 0.162D+01
 Coeff:     -0.273D-04 0.499D-04 0.153D-02-0.285D-02-0.118D-01 0.470D-01
 Coeff:     -0.882D-01-0.431D-01 0.365D+00-0.890D+00 0.162D+01
 Gap=     0.877 Goal=   None    Shift=    0.000
 Gap=     0.590 Goal=   None    Shift=    0.000
 RMSDP=4.13D-07 MaxDP=2.72D-06 DE=-7.87D-10 OVMax= 0.00D+00

 Cycle  12  Pass 1  IDiag  1:
 E= -152.560744359367     Delta-E=       -0.000000000029 Rises=F Damp=F
 DIIS: error= 1.29D-07 at cycle  12 NSaved=  12.
 NSaved=12 IEnMin=12 EnMin= -152.560744359367     IErMin=12 ErrMin= 1.29D-07
 ErrMax= 1.29D-07 EMaxC= 1.00D-01 BMatC= 3.66D-12 BMatP= 3.15D-11
 IDIUse=1 WtCom= 1.00D+00 WtEn= 0.00D+00
 Coeff-Com:  0.106D-04-0.177D-04-0.615D-03 0.110D-02 0.471D-02-0.186D-01
 Coeff-Com:  0.357D-01 0.128D-01-0.143D+00 0.378D+00-0.984D+00 0.171D+01
 Coeff:      0.106D-04-0.177D-04-0.615D-03 0.110D-02 0.471D-02-0.186D-01
 Coeff:      0.357D-01 0.128D-01-0.143D+00 0.378D+00-0.984D+00 0.171D+01
 Gap=     0.877 Goal=   None    Shift=    0.000
 Gap=     0.590 Goal=   None    Shift=    0.000
 RMSDP=1.67D-07 MaxDP=1.30D-06 DE=-2.90D-11 OVMax= 0.00D+00

 Cycle  13  Pass 1  IDiag  1:
 E= -152.560744359371     Delta-E=       -0.000000000004 Rises=F Damp=F
 DIIS: error= 4.67D-08 at cycle  13 NSaved=  13.
 NSaved=13 IEnMin=13 EnMin= -152.560744359371     IErMin=13 ErrMin= 4.67D-08
 ErrMax= 4.67D-08 EMaxC= 1.00D-01 BMatC= 2.91D-13 BMatP= 3.66D-12
 IDIUse=1 WtCom= 1.00D+00 WtEn= 0.00D+00
 Coeff-Com: -0.284D-05 0.425D-05 0.172D-03-0.288D-03-0.132D-02 0.512D-02
 Coeff-Com: -0.101D-01-0.186D-02 0.390D-01-0.112D+00 0.358D+00-0.876D+00
 Coeff-Com:  0.160D+01
 Coeff:     -0.284D-05 0.425D-05 0.172D-03-0.288D-03-0.132D-02 0.512D-02
 Coeff:     -0.101D-01-0.186D-02 0.390D-01-0.112D+00 0.358D+00-0.876D+00
 Coeff:      0.160D+01
 Gap=     0.877 Goal=   None    Shift=    0.000
 Gap=     0.590 Goal=   None    Shift=    0.000
 RMSDP=4.75D-08 MaxDP=4.13D-07 DE=-3.87D-12 OVMax= 0.00D+00

 Cycle  14  Pass 1  IDiag  1:
 E= -152.560744359371     Delta-E=        0.000000000000 Rises=F Damp=F
 DIIS: error= 1.43D-08 at cycle  14 NSaved=  14.
 NSaved=14 IEnMin=14 EnMin= -152.560744359371     IErMin=14 ErrMin= 1.43D-08
 ErrMax= 1.43D-08 EMaxC= 1.00D-01 BMatC= 3.60D-14 BMatP= 2.91D-13
 IDIUse=1 WtCom= 1.00D+00 WtEn= 0.00D+00
 Coeff-Com:  0.114D-05-0.151D-05-0.739D-04 0.115D-03 0.555D-03-0.213D-02
 Coeff-Com:  0.437D-02 0.163D-03-0.165D-01 0.498D-01-0.181D+00 0.512D+00
 Coeff-Com: -0.123D+01 0.186D+01
 Coeff:      0.114D-05-0.151D-05-0.739D-04 0.115D-03 0.555D-03-0.213D-02
 Coeff:      0.437D-02 0.163D-03-0.165D-01 0.498D-01-0.181D+00 0.512D+00
 Coeff:     -0.123D+01 0.186D+01
 Gap=     0.877 Goal=   None    Shift=    0.000
 Gap=     0.590 Goal=   None    Shift=    0.000
 RMSDP=1.75D-08 MaxDP=1.50D-07 DE=-3.98D-13 OVMax= 0.00D+00

 Cycle  15  Pass 1  IDiag  1:
 E= -152.560744359371     Delta-E=        0.000000000000 Rises=F Damp=F
 DIIS: error= 4.78D-09 at cycle  15 NSaved=  15.
 NSaved=15 IEnMin=14 EnMin= -152.560744359371     IErMin=15 ErrMin= 4.78D-09
 ErrMax= 4.78D-09 EMaxC= 1.00D-01 BMatC= 2.08D-15 BMatP= 3.60D-14
 IDIUse=1 WtCom= 1.00D+00 WtEn= 0.00D+00
 Coeff-Com: -0.173D-06 0.155D-06 0.130D-04-0.162D-04-0.932D-04 0.346D-03
 Coeff-Com: -0.782D-03 0.217D-03 0.288D-02-0.971D-02 0.435D-01-0.144D+00
 Coeff-Com:  0.397D+00-0.810D+00 0.152D+01
 Coeff:     -0.173D-06 0.155D-06 0.130D-04-0.162D-04-0.932D-04 0.346D-03
 Coeff:     -0.782D-03 0.217D-03 0.288D-02-0.971D-02 0.435D-01-0.144D+00
 Coeff:      0.397D+00-0.810D+00 0.152D+01
 Gap=     0.877 Goal=   None    Shift=    0.000
 Gap=     0.590 Goal=   None    Shift=    0.000
 RMSDP=4.09D-09 MaxDP=3.35D-08 DE= 2.27D-13 OVMax= 0.00D+00

 SCF Done:  E(UHF) =  -152.560744359     A.U. after   15 cycles
             Convg  =    0.4087D-08             -V/T =  2.0055
 <Sx>= 0.0000 <Sy>= 0.0000 <Sz>= 0.5000 <S**2>= 0.7908 S= 0.5202
 <L.S>= 0.000000000000E+00
 KE= 1.517248784787D+02 PE=-5.323135625781D+02 EE= 1.411170786109D+02
 Annihilation of the first spin contaminant:
 S**2 before annihilation     0.7908,   after     0.7505
 Leave Link  502 at Wed Jan 23 23:49:34 2019, MaxMem=  134217728 cpu:       0.1
 (Enter /home/programs/G09_64/g09/l801.exe)
 Range of M.O.s used for correlation:     1    22
 NBasis=    22 NAE=    14 NBE=    13 NFC=     0 NFV=     0
 NROrb=     22 NOA=    14 NOB=    13 NVA=     8 NVB=     9
 Leave Link  801 at Wed Jan 23 23:49:34 2019, MaxMem=  134217728 cpu:       0.0
 (Enter /home/programs/G09_64/g09/l1101.exe)
 Using compressed storage, NAtomX=    10.
 Will process  11 centers per pass.
 Leave Link 1101 at Wed Jan 23 23:49:34 2019, MaxMem=  134217728 cpu:       0.1
 (Enter /home/programs/G09_64/g09/l1102.exe)
 Symmetrizing basis deriv contribution to polar:
 IMax=3 JMax=2 DiffMx= 0.00D+00
 Leave Link 1102 at Wed Jan 23 23:49:34 2019, MaxMem=  134217728 cpu:       0.1
 (Enter /home/programs/G09_64/g09/l1110.exe)
 Forming Gx(P) for the SCF density, NAtomX=    10.
 Integral derivatives from FoFDir/FoFCou, PRISM(SPDF).
 Do as many integral derivatives as possible in FoFDir.
 G2DrvN: MDV=     134217544.
 G2DrvN: will do    11 centers at a time, making    1 passes doing MaxLOS=1.
 Calling FoFCou, ICntrl=  3107 FMM=F I1Cent=   0 AccDes= 0.00D+00.
 FoFCou: FMM=F IPFlag=           0 FMFlag=      100000 FMFlg1=           0
         NFxFlg=           0 DoJE=F BraDBF=F KetDBF=F FulRan=T
         Omega=  0.000000  0.000000  1.000000  0.000000  0.000000 ICntrl=    3107 IOpCl=  1
         NMat0=    1 NMatS0=    1 NMatT0=    0 NMatD0=    1 NMtDS0=    0 NMtDT0=    0
         I1Cent=           0 NGrid=           0.
 Symmetry not used in FoFCou.
 FoFDir/FoFCou used for L=0 through L=1.
 End of G2Drv Frequency-dependent properties file   721 does not exist.
 End of G2Drv Frequency-dependent properties file   722 does not exist.
 Leave Link 1110 at Wed Jan 23 23:49:35 2019, MaxMem=  134217728 cpu:       0.2
 (Enter /home/programs/G09_64/g09/l1002.exe)
 Minotr:  UHF open shell wavefunction.
          IDoAtm=1111111111
          Direct CPHF calculation.
          Differentiating once with respect to nuclear coordinates.
          Requested convergence is 1.0D-06 RMS, and 1.0D-05 maximum.
          Secondary convergence is 1.0D-12 RMS, and 1.0D-12 maximum.
          NewPWx=T KeepS1=F KeepF1=F KeepIn=T MapXYZ=F SortEE=F KeepMc=T.
          MDV=     134217624 using IRadAn=       2.
          Keep R1 and R2 ints in memory in canonical form, NReq=864982.
 Symmetry not used in FoFDir.
 MinBra= 0 MaxBra= 1 Meth= 1.
 IRaf=       0 NMat=   1 IRICut=       1 DoRegI=T DoRafI=F ISym2E= 0 JSym2E=0.
          Solving linear equations simultaneously, MaxMat=       0.
          There are    33 degrees of freedom in the 1st order CPHF.  IDoFFX=5.
     27 vectors produced by pass  0 Test12= 6.94D-12 3.03D-07 XBig12= 6.08D-02 1.61D-01.
 AX will form    27 AO Fock derivatives at one time.
     27 vectors produced by pass  1 Test12= 6.94D-12 3.03D-07 XBig12= 4.58D-04 6.75D-03.
     27 vectors produced by pass  2 Test12= 6.94D-12 3.03D-07 XBig12= 3.62D-06 3.96D-04.
     27 vectors produced by pass  3 Test12= 6.94D-12 3.03D-07 XBig12= 4.75D-08 4.89D-05.
     13 vectors produced by pass  4 Test12= 6.94D-12 3.03D-07 XBig12= 1.91D-10 3.51D-06.
 Inverted reduced A of dimension   121 with in-core refinement.
 End of Minotr Frequency-dependent properties file   721 does not exist.
 End of Minotr Frequency-dependent properties file   722 does not exist.
 Leave Link 1002 at Wed Jan 23 23:49:35 2019, MaxMem=  134217728 cpu:       0.1
 (Enter /home/programs/G09_64/g09/l601.exe)
 Copying SCF densities to generalized density rwf, IOpCl= 1 IROHF=0.

 **********************************************************************

            Population analysis using the SCF density.

 **********************************************************************

 Alpha  occ. eigenvalues --  -20.25242 -11.09812 -11.04505  -1.29365  -0.99265
 Alpha  occ. eigenvalues --   -0.81503  -0.64662  -0.60856  -0.57702  -0.52918
 Alpha  occ. eigenvalues --   -0.51756  -0.41002  -0.35734  -0.30593
 Alpha virt. eigenvalues --    0.57126   0.62259   0.67567   0.70542   0.73086
 Alpha virt. eigenvalues --    0.75366   0.77836   0.81243
  Beta  occ. eigenvalues --  -20.25222 -11.10053 -11.02093  -1.29251  -0.95004
  Beta  occ. eigenvalues --   -0.78426  -0.63137  -0.57206  -0.54873  -0.50836
  Beta  occ. eigenvalues --   -0.48648  -0.40432  -0.35355
  Beta virt. eigenvalues --    0.23598   0.57287   0.64606   0.68285   0.72703
  Beta virt. eigenvalues --    0.75451   0.76685   0.82730   0.86311
          Condensed to atoms (all electrons):
              1          2          3          4          5          6
     1  C    4.985884   0.367915  -0.019104   0.128099   0.382608   0.383536
     2  C    0.367915   4.696879   0.273112  -0.011684  -0.019182  -0.021921
     3  O   -0.019104   0.273112   7.834783  -0.000899   0.000574  -0.000604
     4  H    0.128099  -0.011684  -0.000899   0.629881  -0.010021  -0.010454
     5  H    0.382608  -0.019182   0.000574  -0.010021   0.604032  -0.021171
     6  H    0.383536  -0.021921  -0.000604  -0.010454  -0.021171   0.601668
     7  H   -0.028235   0.376709  -0.016801  -0.001853  -0.001737   0.001883
     8  H   -0.023620   0.377279  -0.020918   0.000845  -0.000881  -0.001447
     9  H   -0.002980  -0.043693   0.260986   0.000301  -0.000008   0.000032
    10  H   -0.040787  -0.001100  -0.000047   0.248893  -0.000770  -0.000751
              7          8          9         10
     1  C   -0.028235  -0.023620  -0.002980  -0.040787
     2  C    0.376709   0.377279  -0.043693  -0.001100
     3  O   -0.016801  -0.020918   0.260986  -0.000047
     4  H   -0.001853   0.000845   0.000301   0.248893
     5  H   -0.001737  -0.000881  -0.000008  -0.000770
     6  H    0.001883  -0.001447   0.000032  -0.000751
     7  H    0.643070  -0.024676  -0.002858   0.000134
     8  H   -0.024676   0.618289   0.003924  -0.000016
     9  H   -0.002858   0.003924   0.593027  -0.000069
    10  H    0.000134  -0.000016  -0.000069   0.835398
 Mulliken atomic charges:
              1
     1  C   -0.133317
     2  C    0.005686
     3  O   -0.311084
     4  H    0.026892
     5  H    0.066555
     6  H    0.069230
     7  H    0.054363
     8  H    0.071222
     9  H    0.191338
    10  H   -0.040885
 Sum of Mulliken atomic charges =   0.00000
 Mulliken charges with hydrogens summed into heavy atoms:
              1
     1  C   -0.011525
     2  C    0.131271
     3  O   -0.119746
 Sum of Mulliken charges with hydrogens summed into heavy atoms =   0.00000
          Atomic-Atomic Spin Densities.
              1          2          3          4          5          6
     1  C    0.970055  -0.017835  -0.001408   0.018506  -0.010675  -0.011244
     2  C   -0.017835  -0.087033   0.003419   0.002269   0.001108   0.001155
     3  O   -0.001408   0.003419   0.006643   0.000140   0.000015   0.000161
     4  H    0.018506   0.002269   0.000140  -0.261506   0.002638   0.002678
     5  H   -0.010675   0.001108   0.000015   0.002638  -0.053080   0.001347
     6  H   -0.011244   0.001155   0.000161   0.002678   0.001347  -0.050585
     7  H   -0.003298   0.003175   0.000255   0.000058   0.000353   0.000088
     8  H   -0.006806   0.002507  -0.001280  -0.000053  -0.000422  -0.000482
     9  H    0.000539   0.000397  -0.000240  -0.000060  -0.000003  -0.000027
    10  H   -0.054965   0.001528   0.000101  -0.015131   0.001274   0.001393
              7          8          9         10
     1  C   -0.003298  -0.006806   0.000539  -0.054965
     2  C    0.003175   0.002507   0.000397   0.001528
     3  O    0.000255  -0.001280  -0.000240   0.000101
     4  H    0.000058  -0.000053  -0.000060  -0.015131
     5  H    0.000353  -0.000422  -0.000003   0.001274
     6  H    0.000088  -0.000482  -0.000027   0.001393
     7  H    0.012846  -0.002708  -0.000125   0.000577
     8  H   -0.002708   0.045265   0.000110  -0.000134
     9  H   -0.000125   0.000110  -0.000501  -0.000493
    10  H    0.000577  -0.000134  -0.000493   0.581093
 Mulliken atomic spin densities:
              1
     1  C    0.882869
     2  C   -0.089312
     3  O    0.007806
     4  H   -0.250459
     5  H   -0.057446
     6  H   -0.055517
     7  H    0.011221
     8  H    0.035997
     9  H   -0.000403
    10  H    0.515243
 Sum of Mulliken atomic spin densities =   1.00000
 APT atomic charges:
              1
     1  C   -0.740843
     2  C   -0.515275
     3  O   -0.549258
     4  H   -0.198976
     5  H    0.431367
     6  H    0.315114
     7  H    0.312102
     8  H    0.339263
     9  H    0.388162
    10  H    0.218344
 Sum of APT charges=   0.00000
 APT Atomic charges with hydrogens summed into heavy atoms:
              1
     1  C    0.025007
     2  C    0.136090
     3  O   -0.161096
     4  H    0.000000
     5  H    0.000000
     6  H    0.000000
     7  H    0.000000
     8  H    0.000000
     9  H    0.000000
    10  H    0.000000
 Sum of APT charges=   0.00000
 Electronic spatial extent (au):  <R**2>=            217.2295
 Charge=              0.0000 electrons
 Dipole moment (field-independent basis, Debye):
    X=              1.0989    Y=             -0.0443    Z=              0.5112  Tot=              1.2128
 Quadrupole moment (field-independent basis, Debye-Ang):
   XX=            -22.0132   YY=            -18.2070   ZZ=            -19.3210
   XY=             -1.1658   XZ=             -1.0582   YZ=              0.3006
 Traceless Quadrupole moment (field-independent basis, Debye-Ang):
   XX=             -2.1661   YY=              1.6400   ZZ=              0.5261
   XY=             -1.1658   XZ=             -1.0582   YZ=              0.3006
 Octapole moment (field-independent basis, Debye-Ang**2):
  XXX=             -9.8069  YYY=              0.2390  ZZZ=             -2.6290  XYY=             -6.9611
  XXY=             -1.6303  XXZ=             -0.5104  XZZ=             -4.2918  YZZ=             -0.1133
  YYZ=             -0.6154  XYZ=             -1.2784
 Hexadecapole moment (field-independent basis, Debye-Ang**3):
 XXXX=           -152.9992 YYYY=            -68.8310 ZZZZ=            -37.8919 XXXY=             -6.6819
 XXXZ=              2.0482 YYYX=             -5.9616 YYYZ=             -0.9157 ZZZX=              1.6584
 ZZZY=             -3.0066 XXYY=            -36.1561 XXZZ=            -31.9572 YYZZ=            -18.4875
 XXYZ=             -1.0440 YYXZ=              0.3488 ZZXY=             -0.8633
 N-N= 8.691086112909D+01 E-N=-7.936026880519D+02  KE= 2.268325065032D+02
  Exact polarizability:   0.000   0.000   0.000   0.000   0.000   0.000
 Approx polarizability:   9.699   0.053  15.719   1.421   2.959  10.752
                          Isotropic Fermi Contact Couplings
        Atom                 a.u.       MegaHertz       Gauss      10(-4) cm-1
     1  C(13)              0.26258     295.19031     105.33124      98.46489
     2  C(13)             -0.03743     -42.07578     -15.01369     -14.03497
     3  O(17)              0.00181      -1.09453      -0.39056      -0.36510
     4  H(1)              -0.09955    -444.98592    -158.78204    -148.43133
     5  H(1)              -0.02023     -90.43742     -32.27032     -30.16667
     6  H(1)              -0.01925     -86.05107     -30.70516     -28.70355
     7  H(1)               0.00489      21.85012       7.79667       7.28842
     8  H(1)               0.01736      77.59115      27.68645      25.88162
     9  H(1)              -0.00020      -0.88071      -0.31426      -0.29377
    10  H(1)               0.22031     984.76159     351.38741     328.48111
 --------------------------------------------------------
       Center         ----  Spin Dipole Couplings  ----
                      3XX-RR        3YY-RR        3ZZ-RR
 --------------------------------------------------------
     1   Atom       -0.373169      0.475930     -0.102761
     2   Atom        0.014450     -0.008045     -0.006405
     3   Atom        0.017287     -0.002034     -0.015253
     4   Atom       -0.133787      0.163930     -0.030142
     5   Atom        0.033967      0.008754     -0.042721
     6   Atom       -0.063160     -0.018967      0.082127
     7   Atom        0.003140     -0.000167     -0.002973
     8   Atom        0.009604     -0.003342     -0.006262
     9   Atom        0.010762     -0.003928     -0.006835
    10   Atom        0.023392     -0.026195      0.002802
 --------------------------------------------------------
                        XY            XZ            YZ
 --------------------------------------------------------
     1   Atom        0.162028      0.096856      0.512060
     2   Atom        0.006615     -0.001998     -0.005642
     3   Atom       -0.015925      0.013510     -0.005008
     4   Atom        0.051703      0.031240      0.185440
     5   Atom       -0.060209      0.036346     -0.005497
     6   Atom        0.005541      0.001776     -0.030032
     7   Atom        0.007666     -0.012942     -0.004242
     8   Atom        0.008951     -0.002785     -0.004979
     9   Atom       -0.003141     -0.000441      0.002880
    10   Atom       -0.005705     -0.003783     -0.032804
 --------------------------------------------------------


 ---------------------------------------------------------------------------------
              Anisotropic Spin Dipole Couplings in Principal Axis System
 ---------------------------------------------------------------------------------

       Atom             a.u.   MegaHertz   Gauss  10(-4) cm-1        Axes

              Baa    -0.4047   -54.302   -19.376   -18.113  0.8331  0.1554 -0.5308
     1 C(13)  Bbb    -0.4003   -53.719   -19.168   -17.919  0.5300 -0.4988  0.6858
              Bcc     0.8050   108.021    38.545    36.032  0.1582  0.8527  0.4979
 
              Baa    -0.0135    -1.808    -0.645    -0.603 -0.1455  0.7928  0.5919
     2 C(13)  Bbb    -0.0033    -0.443    -0.158    -0.148  0.2895 -0.5380  0.7917
              Bcc     0.0168     2.251     0.803     0.751  0.9460  0.2866 -0.1513
 
              Baa    -0.0202     1.460     0.521     0.487 -0.3612 -0.0602  0.9305
     3 O(17)  Bbb    -0.0105     0.760     0.271     0.253  0.4050  0.8888  0.2147
              Bcc     0.0307    -2.220    -0.792    -0.740  0.8400 -0.4544  0.2966
 
              Baa    -0.1425   -76.044   -27.134   -25.365  0.9158 -0.3094  0.2560
     4 H(1)   Bbb    -0.1424   -75.967   -27.107   -25.340 -0.3753 -0.4328  0.8196
              Bcc     0.2849   152.011    54.241    50.705  0.1428  0.8467  0.5125
 
              Baa    -0.0641   -34.192   -12.200   -11.405 -0.5122 -0.3647  0.7776
     5 H(1)   Bbb    -0.0265   -14.126    -5.040    -4.712  0.3700  0.7234  0.5830
              Bcc     0.0906    48.317    17.241    16.117  0.7751 -0.5863  0.2356
 
              Baa    -0.0641   -34.189   -12.199   -11.404  0.9878 -0.1498 -0.0428
     6 H(1)   Bbb    -0.0263   -14.032    -5.007    -4.680  0.1558  0.9526  0.2613
              Bcc     0.0904    48.220    17.206    16.085  0.0016 -0.2648  0.9643
 
              Baa    -0.0134    -7.155    -2.553    -2.387  0.6485 -0.1355  0.7491
     7 H(1)   Bbb    -0.0042    -2.236    -0.798    -0.746 -0.2552  0.8884  0.3816
              Bcc     0.0176     9.392     3.351     3.133  0.7171  0.4387 -0.5415
 
              Baa    -0.0107    -5.725    -2.043    -1.910 -0.2256  0.7175  0.6591
     8 H(1)   Bbb    -0.0045    -2.410    -0.860    -0.804  0.4675 -0.5138  0.7193
              Bcc     0.0152     8.134     2.903     2.713  0.8547  0.4704 -0.2196
 
              Baa    -0.0087    -4.640    -1.656    -1.548 -0.0698 -0.5490  0.8329
     9 H(1)   Bbb    -0.0028    -1.476    -0.527    -0.492  0.2058  0.8091  0.5505
              Bcc     0.0115     6.116     2.182     2.040  0.9761 -0.2098 -0.0565
 
              Baa    -0.0482   -25.726    -9.180    -8.581  0.0952  0.8341  0.5434
    10 H(1)   Bbb     0.0240    12.819     4.574     4.276  0.9280 -0.2718  0.2548
              Bcc     0.0242    12.907     4.606     4.305 -0.3602 -0.4800  0.7999
 

 ---------------------------------------------------------------------------------

 No NMR shielding tensors so no spin-rotation constants.
 Leave Link  601 at Wed Jan 23 23:49:35 2019, MaxMem=  134217728 cpu:       0.2
 (Enter /home/programs/G09_64/g09/l701.exe)
 Compute integral second derivatives.
 ... and contract with generalized density number  0.
 Leave Link  701 at Wed Jan 23 23:49:35 2019, MaxMem=  134217728 cpu:       0.2
 (Enter /home/programs/G09_64/g09/l702.exe)
 L702 exits ... SP integral derivatives will be done elsewhere.
 Leave Link  702 at Wed Jan 23 23:49:35 2019, MaxMem=  134217728 cpu:       0.0
 (Enter /home/programs/G09_64/g09/l703.exe)
 Compute integral second derivatives, UseDBF=F ICtDFT=           0.
 Integral derivatives from FoFDir, PRISM(SPDF).
 Calling FoFJK, ICntrl=    100147 FMM=F ISym2X=0 I1Cent= 0 IOpClX= 1 NMat=1 NMatS=1 NMatT=0.
 FoFCou: FMM=F IPFlag=           0 FMFlag=      100000 FMFlg1=         800
         NFxFlg=           0 DoJE=F BraDBF=F KetDBF=F FulRan=T
         Omega=  0.000000  0.000000  1.000000  0.000000  0.000000 ICntrl=  100147 IOpCl=  1
         NMat0=    1 NMatS0=    1 NMatT0=    0 NMatD0=    1 NMtDS0=    0 NMtDT0=    0
         I1Cent=           0 NGrid=           0.
 Symmetry not used in FoFCou.
 Leave Link  703 at Wed Jan 23 23:49:35 2019, MaxMem=  134217728 cpu:       0.2
 (Enter /home/programs/G09_64/g09/l716.exe)
 Dipole        = 4.32352068D-01-1.74479422D-02 2.01133763D-01
 Polarizability= 0.00000000D+00 0.00000000D+00 0.00000000D+00
                 0.00000000D+00 0.00000000D+00 0.00000000D+00
 -------------------------------------------------------------------
 Center     Atomic                   Forces (Hartrees/Bohr)
 Number     Number              X              Y              Z
 -------------------------------------------------------------------
      1        6           0.030564756    0.008075444   -0.009133911
      2        6          -0.015153277   -0.011740050    0.014262364
      3        8          -0.038484228   -0.025904197   -0.029043342
      4        1           0.004796084    0.033428809    0.021212859
      5        1           0.000229369   -0.002953614   -0.002146457
      6        1           0.000459335   -0.002464920   -0.002596720
      7        1           0.002881385   -0.001684702    0.005230874
      8        1          -0.000634612   -0.005775816   -0.002199127
      9        1           0.017252888    0.033068037    0.020649770
     10        1          -0.001911700   -0.024048991   -0.016236309
 -------------------------------------------------------------------
 Cartesian Forces:  Max     0.038484228 RMS     0.017326737
 Force constants in Cartesian coordinates: 
                1             2             3             4             5 
      1  0.787537D+00
      2 -0.120646D+00  0.341606D+00
      3 -0.319922D-01 -0.284564D+00  0.678795D+00
      4 -0.309267D+00 -0.748526D-01  0.867235D-01  0.779229D+00
      5 -0.879935D-01 -0.112739D+00  0.585703D-01  0.113683D-01  0.838771D+00
      6  0.815990D-01  0.469269D-01 -0.143826D+00  0.330048D-01  0.961601D-02
      7 -0.540302D-01  0.370472D-01 -0.133030D-01 -0.282707D+00  0.112846D+00
      8  0.466425D-02  0.702057D-02 -0.309167D-02  0.202089D+00 -0.251739D+00
      9  0.527426D-02 -0.727619D-02  0.103150D-01 -0.684169D-01  0.581564D-02
     10 -0.259037D-01  0.304280D-01  0.159875D-01 -0.745418D-02 -0.197380D-01
     11  0.419442D-01  0.149954D+00  0.103181D+00 -0.105977D-01 -0.273589D-01
     12  0.244376D-01  0.112934D+00  0.286649D-01 -0.253998D-02 -0.602839D-02
     13 -0.317017D+00  0.179811D+00 -0.755393D-01 -0.169903D-01  0.248519D-01
     14  0.193459D+00 -0.175011D+00  0.823684D-01 -0.161897D-01  0.130924D-01
     15 -0.691344D-01  0.738265D-01 -0.924405D-01  0.100219D-01 -0.104513D-01
     16 -0.779867D-01  0.882586D-02 -0.780378D-03  0.549459D-02 -0.980346D-02
     17  0.778013D-02 -0.714750D-01  0.114672D+00  0.166545D-02 -0.205377D-02
     18  0.232114D-02  0.131807D+00 -0.437961D+00 -0.375061D-02 -0.471826D-03
     19  0.371324D-02 -0.842752D-02  0.442370D-01 -0.717999D-01 -0.148930D-03
     20 -0.205632D-02 -0.129485D-02  0.163622D-01 -0.391168D-02 -0.869798D-01
     21 -0.231669D-02  0.731270D-03 -0.857673D-02 -0.105729D-01  0.452895D-01
     22 -0.137840D-01 -0.332639D-01 -0.139498D-01 -0.955878D-01 -0.949385D-01
     23 -0.567844D-02 -0.824752D-02 -0.506808D-02 -0.833509D-01 -0.351772D+00
     24  0.770690D-02  0.155594D-01  0.856432D-02 -0.411865D-01 -0.138025D+00
     25  0.293774D-02  0.905573D-03  0.316439D-03 -0.132898D-02  0.620280D-01
     26 -0.260031D-02  0.357547D-02 -0.979521D-03 -0.307885D-01 -0.274546D-01
     27  0.157358D-03 -0.941078D-03  0.269435D-03 -0.592222D-02  0.297928D-01
     28  0.380078D-02 -0.198282D-01 -0.116998D-01  0.411007D-03  0.152852D-02
     29 -0.288735D-01 -0.133390D+00 -0.814507D-01  0.456828D-02  0.823384D-02
     30 -0.180530D-01 -0.890032D-01 -0.438046D-01  0.263890D-02  0.589256D-02
                6             7             8             9            10 
      6  0.834558D+00
      7 -0.987156D-01  0.410242D+00
      8  0.593516D-01 -0.779414D-01  0.888107D+00
      9 -0.102979D+00  0.196527D+00  0.223043D+00  0.200994D+00
     10 -0.953217D-02  0.159798D-02 -0.113679D-02  0.189002D-03  0.690250D-01
     11 -0.126315D-01  0.282200D-02 -0.719869D-03  0.904721D-03 -0.319612D-01
     12 -0.226447D-02  0.718882D-03 -0.380053D-03  0.130903D-03 -0.216420D-01
     13 -0.110594D-01 -0.622760D-02 -0.206028D-02  0.214722D-02  0.241624D-02
     14 -0.459881D-02 -0.422874D-02 -0.140614D-04  0.100339D-02  0.981714D-02
     15  0.559567D-02  0.420325D-02  0.274902D-03  0.427445D-03  0.594048D-02
     16  0.410944D-01  0.465550D-02  0.318779D-03 -0.200274D-02 -0.347415D-03
     17  0.151658D-01  0.378479D-03  0.283379D-03 -0.991217D-03 -0.315271D-02
     18 -0.434711D-02 -0.149316D-02 -0.265554D-03  0.843024D-03 -0.120014D-02
     19 -0.128589D-01 -0.129165D-01  0.161500D-01 -0.396477D-01  0.892317D-03
     20  0.473662D-01  0.165932D-01 -0.868083D-02  0.341865D-01  0.425848D-03
     21 -0.436680D+00 -0.100343D-01  0.705292D-02 -0.425589D-02 -0.648798D-03
     22 -0.471959D-01  0.112510D-01  0.382110D-01  0.176000D-01 -0.287405D-02
     23 -0.140358D+00 -0.153283D-02 -0.306795D-01 -0.116946D-01  0.259938D-04
     24 -0.150631D+00  0.484615D-02  0.117821D-01  0.959001D-02  0.129679D-02
     25  0.235264D-01 -0.719243D-01 -0.180286D+00 -0.111679D+00 -0.632396D-03
     26 -0.240892D-01 -0.852198D-01 -0.604220D+00 -0.244620D+00  0.267871D-03
     27 -0.179582D-02 -0.821634D-01 -0.298088D+00 -0.114983D+00  0.407219D-04
     28  0.137516D-03  0.593221D-04 -0.812983D-05  0.935584D-05 -0.367198D-01
     29  0.325137D-02 -0.763711D-03  0.642509D-03 -0.371353D-03  0.150239D-01
     30  0.237019D-02 -0.585632D-03  0.320859D-03 -0.817868D-04  0.956859D-02
               11            12            13            14            15 
     11 -0.126196D+00
     12 -0.120945D+00 -0.251281D-02
     13 -0.881390D-02 -0.301288D-02  0.326487D+00
     14 -0.224732D-01 -0.444882D-02 -0.189908D+00  0.178077D+00
     15 -0.165096D-01 -0.415976D-02  0.809652D-01 -0.737274D-01  0.863619D-01
     16 -0.172977D-02 -0.438540D-02  0.634967D-02  0.474728D-02 -0.318891D-01
     17 -0.135872D-01 -0.271491D-01 -0.447284D-02 -0.982266D-03  0.222048D-01
     18 -0.293494D-02 -0.107208D-01  0.583031D-02 -0.448843D-02  0.852976D-03
     19  0.114887D-02  0.522599D-03  0.214360D-02  0.632284D-03 -0.102525D-02
     20  0.763467D-03  0.683470D-03 -0.872733D-05  0.109786D-03 -0.606635D-03
     21 -0.119504D-02 -0.280832D-04 -0.259568D-03 -0.301239D-03  0.851618D-03
     22 -0.355177D-02 -0.289307D-03  0.191210D-02  0.135599D-02  0.273184D-03
     23  0.174176D-02  0.102675D-02  0.890189D-04  0.595303D-03  0.226961D-03
     24  0.196491D-02  0.990955D-03 -0.436782D-03 -0.227297D-03 -0.766006D-04
     25  0.859603D-03  0.249040D-03  0.325263D-03 -0.161372D-03 -0.104991D-03
     26  0.950429D-03  0.108929D-03 -0.893393D-03 -0.137674D-03  0.523936D-03
     27 -0.261335D-04  0.167093D-03 -0.246429D-04  0.280684D-03 -0.119686D-03
     28  0.987969D-02  0.594138D-02  0.601296D-03  0.476093D-03  0.749703D-03
     29  0.369251D-01  0.441987D-01  0.140524D-02  0.674278D-02  0.423789D-02
     30  0.481920D-01 -0.102679D-01  0.138985D-02  0.413952D-02  0.270692D-02
               16            17            18            19            20 
     16  0.678510D-01
     17 -0.231829D-02  0.787467D-01
     18 -0.318953D-02 -0.127606D+00  0.447317D+00
     19 -0.722764D-02 -0.244408D-02  0.844705D-03  0.814641D-01
     20 -0.231080D-02  0.533384D-03  0.630525D-03 -0.629748D-02  0.825364D-01
     21  0.102408D-02 -0.142886D-03  0.792250D-03  0.200586D-01 -0.593636D-01
     22  0.154424D-02  0.158345D-02 -0.132995D-03  0.185934D-02 -0.402547D-03
     23  0.105502D-02  0.102720D-02 -0.245334D-05  0.200295D-02  0.101297D-01
     24 -0.808859D-03 -0.552737D-03  0.673809D-03 -0.121715D-01 -0.404436D-01
     25 -0.288787D-03 -0.459374D-04  0.233475D-03  0.182531D-02 -0.221392D-02
     26  0.596451D-04 -0.134750D-04  0.881752D-04 -0.236564D-02  0.269356D-02
     27  0.166162D-03 -0.215222D-03 -0.300307D-03  0.449906D-03  0.136611D-02
     28 -0.444456D-04  0.102635D-02  0.536806D-03  0.461731D-04  0.182459D-03
     29  0.115574D-02  0.752103D-02  0.324407D-02 -0.250424D-03  0.189143D-03
     30  0.771360D-03  0.461448D-02  0.285012D-02 -0.409508D-03 -0.181013D-03
               21            22            23            24            25 
     21  0.457186D+00
     22  0.165854D-02  0.101870D+00
     23  0.783008D-02  0.830826D-01  0.380320D+00
     24 -0.118551D-01  0.436948D-01  0.147342D+00  0.142404D+00
     25  0.104672D-02 -0.648340D-02  0.432029D-02 -0.295211D-02  0.756725D-01
     26 -0.390521D-03  0.687046D-02 -0.264510D-02  0.294324D-02  0.115154D+00
     27  0.217144D-02 -0.228256D-02  0.118488D-02  0.657824D-03  0.897506D-01
     28  0.443174D-04  0.292276D-03 -0.136549D-04  0.111137D-04 -0.102984D-03
     29  0.489565D-03  0.105316D-02 -0.469359D-03 -0.343037D-03 -0.560104D-03
     30  0.394042D-03  0.624055D-03 -0.487474D-03 -0.317792D-03 -0.386106D-03
               26            27            28            29            30 
     26  0.627404D+00
     27  0.266542D+00  0.114028D+00
     28 -0.484577D-03 -0.171900D-03  0.316564D-01
     29 -0.153434D-03  0.104326D-03  0.724143D-02  0.737583D-01
     30 -0.126947D-03 -0.941518D-04  0.444148D-02  0.266392D-01  0.462449D-01
 Force constants in internal coordinates: 
                1             2             3             4             5 
      1  0.471745D+00
      2  0.748633D-02  0.201761D-01
      3 -0.255269D-02 -0.125423D-02  0.485647D+00
      4 -0.173974D-02 -0.131943D-02 -0.622499D-02  0.487183D+00
      5  0.252692D-01 -0.153177D-02 -0.656040D-03 -0.623733D-03  0.574860D+00
      6  0.743999D-03 -0.652570D-03  0.266795D-03 -0.788209D-03  0.159578D-01
      7  0.428360D-02 -0.139378D-02  0.695483D-04 -0.786719D-04  0.103884D-01
      8 -0.116857D-02  0.612121D-03 -0.456739D-03 -0.392457D-04 -0.294646D-01
      9 -0.577079D-02  0.158527D+00 -0.151498D-02 -0.150510D-02  0.157997D-02
     10  0.116702D-01  0.956309D-02 -0.177561D-02 -0.174454D-02 -0.366821D-02
     11  0.117973D-01 -0.876958D-02  0.426415D-02 -0.634635D-02  0.782886D-02
     12  0.121485D-01 -0.842932D-02 -0.642492D-02  0.460142D-02 -0.508655D-02
     13 -0.119408D-01  0.559684D-02 -0.868782D-03 -0.103515D-03 -0.419155D-03
     14 -0.110468D-01  0.561299D-02 -0.251992D-04 -0.923553D-03  0.200398D-02
     15 -0.163392D-01  0.213200D-02  0.420541D-02  0.383199D-02 -0.118335D-02
     16  0.181396D-01 -0.306859D-02  0.504832D-02 -0.285957D-02  0.225862D-01
     17  0.124279D-01 -0.141185D-02 -0.227475D-02  0.293411D-02 -0.250634D-01
     18  0.116090D-01  0.462021D-02 -0.177656D-02 -0.986289D-03 -0.209833D-01
     19 -0.162027D-01  0.129287D-02 -0.925186D-03  0.123856D-03  0.141506D-01
     20 -0.170221D-01 -0.568986D-03 -0.107162D-02  0.115970D-02  0.952857D-02
     21 -0.114953D-01 -0.588532D-03  0.833989D-03 -0.382471D-03 -0.228271D-03
     22 -0.450506D-02  0.269983D-03 -0.680967D-03  0.157372D-03  0.684362D-01
     23 -0.101990D-02  0.306764D-02  0.531436D-03  0.467673D-03 -0.635146D-03
     24 -0.463101D-03 -0.447943D-04 -0.739959D-03  0.728562D-03  0.211862D-03
     25  0.185137D-02 -0.822777D-03 -0.126404D-02  0.176971D-02  0.433669D-03
     26  0.267896D-03  0.816304D-03 -0.204086D-02  0.148336D-02 -0.156772D-01
     27 -0.329306D-03 -0.426789D-03 -0.583046D-03  0.759791D-03  0.128309D-01
     28  0.227787D-03  0.780629D-02 -0.143281D-02 -0.239981D-02  0.128714D-02
     29 -0.135569D-02  0.944537D-02 -0.220963D-02 -0.268615D-02 -0.148237D-01
     30 -0.195289D-02  0.820228D-02 -0.751818D-03 -0.340972D-02  0.136843D-01
     31  0.236314D-02 -0.947269D-02  0.281899D-02  0.181034D-02  0.261864D-02
     32  0.779661D-03 -0.783361D-02  0.204217D-02  0.152399D-02 -0.134922D-01
     33  0.182460D-03 -0.907670D-02  0.349998D-02  0.800423D-03  0.150158D-01
     34 -0.989248D-03  0.230855D-02  0.858221D-04 -0.148348D-02 -0.848621D-03
     35  0.165568D-01 -0.856809D-03  0.161505D-03  0.333401D-03 -0.613115D-02
     36 -0.144667D-01 -0.123337D-02  0.912886D-04  0.591416D-03  0.587648D-02
                6             7             8             9            10 
      6  0.467473D+00
      7 -0.338692D-02  0.474344D+00
      8  0.260495D-03 -0.105548D-02  0.769436D+00
      9  0.584192D-03  0.452288D-03 -0.359259D-03  0.911044D-01
     10 -0.165870D-02  0.971104D-03 -0.867221D-03 -0.650318D-02  0.861853D-01
     11 -0.136185D-02 -0.485742D-03 -0.763608D-03  0.498555D-02 -0.124409D-01
     12  0.201502D-02 -0.156915D-02  0.370409D-03  0.511886D-02 -0.129944D-01
     13  0.627844D-03  0.152496D-03  0.873354D-03 -0.302192D-02 -0.360804D-01
     14  0.413408D-03  0.547637D-03  0.366310D-04 -0.259381D-02 -0.342452D-01
     15 -0.186048D-03  0.854153D-03  0.382849D-03 -0.129781D-02  0.127068D-01
     16 -0.343326D-02 -0.454220D-02 -0.895700D-02  0.194074D-02 -0.149803D-02
     17  0.226916D-02 -0.413955D-02  0.284722D-02  0.379612D-03 -0.423871D-02
     18 -0.470739D-02  0.159906D-02  0.272322D-03 -0.214762D-02  0.778122D-02
     19  0.243718D-02  0.686524D-03 -0.243212D-03 -0.830983D-03  0.268105D-02
     20  0.796109D-04  0.401776D-02  0.735094D-02  0.117879D-03 -0.355813D-02
     21  0.349347D-02  0.319454D-02 -0.721861D-03  0.403793D-03 -0.886451D-03
     22 -0.418599D-02  0.149672D-02  0.248792D-01  0.882897D-03  0.145722D-02
     23 -0.147383D-03 -0.320182D-03 -0.663529D-03  0.252175D-02  0.794086D-03
     24 -0.754898D-04 -0.126282D-03  0.355252D-03  0.126076D-03 -0.260906D-03
     25  0.288984D-02 -0.296084D-02 -0.327303D-02  0.754722D-03  0.311711D-03
     26  0.502358D-03  0.262947D-02  0.147605D-02  0.125519D-03  0.112496D-02
     27 -0.229934D-02  0.257829D-03  0.451572D-03  0.712779D-03  0.432976D-04
     28  0.197784D-02 -0.239747D-02 -0.311656D-02 -0.462339D-02  0.476903D-02
     29 -0.409636D-03  0.319283D-02  0.163251D-02 -0.525259D-02  0.558228D-02
     30 -0.321133D-02  0.821197D-03  0.608035D-03 -0.466533D-02  0.450062D-02
     31  0.247247D-02 -0.348258D-02 -0.296019D-02  0.545492D-02 -0.512243D-02
     32  0.849861D-04  0.210773D-02  0.178888D-02  0.482572D-02 -0.430918D-02
     33 -0.271671D-02 -0.263912D-03  0.764408D-03  0.541298D-02 -0.539084D-02
     34 -0.397882D-02  0.343976D-02  0.123228D-02 -0.115613D-02  0.350118D-02
     35 -0.169943D-02 -0.487991D-02 -0.190548D-02  0.160201D-03 -0.114927D-02
     36  0.366072D-02  0.146839D-02  0.123178D-02  0.293824D-03 -0.286536D-02
               11            12            13            14            15 
     11  0.113399D+00
     12 -0.398972D-01  0.115397D+00
     13 -0.298164D-01  0.125589D-01  0.378249D-01
     14  0.126716D-01 -0.309962D-01  0.891864D-02  0.371308D-01
     15 -0.527959D-01 -0.539519D-01  0.103501D-01  0.107788D-01  0.838202D-01
     16  0.265389D-01 -0.201922D-01 -0.770858D-02  0.527503D-02 -0.348934D-02
     17 -0.133224D-01  0.197547D-01  0.413261D-02 -0.381651D-02 -0.365336D-02
     18 -0.697242D-02 -0.206831D-02  0.346977D-03 -0.167162D-02  0.433188D-02
     19 -0.508825D-02 -0.445185D-03  0.125977D-02 -0.399268D-03  0.298849D-02
     20 -0.675761D-02  0.742865D-02  0.315667D-02 -0.684971D-03  0.156747D-03
     21  0.484030D-02 -0.451719D-02 -0.946140D-03  0.123934D-02  0.135554D-03
     22 -0.180916D-02  0.974467D-03 -0.478540D-03 -0.511761D-03  0.479091D-03
     23 -0.446405D-03 -0.276557D-03 -0.409544D-03  0.261884D-04  0.422191D-03
     24 -0.137037D-03  0.133771D-03  0.213777D-03  0.423665D-04  0.110508D-04
     25 -0.693192D-02  0.832211D-02 -0.515808D-02  0.422972D-02 -0.963485D-03
     26 -0.968517D-02  0.876042D-02 -0.427249D-02  0.376888D-02  0.468468D-03
     27 -0.319718D-02  0.347440D-02 -0.585483D-02  0.560891D-02 -0.114364D-03
     28  0.217993D-02 -0.322548D-02  0.405736D-02 -0.474134D-03 -0.515137D-02
     29 -0.573316D-03 -0.278717D-02  0.494296D-02 -0.934978D-03 -0.371942D-02
     30  0.591468D-02 -0.807319D-02  0.336061D-02  0.905052D-03 -0.430225D-02
     31  0.391306D-02  0.133512D-05  0.315854D-03 -0.507351D-02  0.333778D-02
     32  0.115981D-02  0.439647D-03  0.120145D-02 -0.553435D-02  0.476973D-02
     33  0.764780D-02 -0.484637D-02 -0.380898D-03 -0.369432D-02  0.418690D-02
     34  0.107663D-02 -0.664908D-02 -0.622654D-03  0.616559D-03  0.306502D-02
     35 -0.491956D-03  0.390427D-02  0.123272D-04 -0.765315D-03 -0.206965D-02
     36 -0.106197D-02  0.251160D-02  0.127984D-02  0.116766D-03 -0.354025D-03
               16            17            18            19            20 
     16  0.194520D+00
     17 -0.492253D-01  0.100139D+00
     18 -0.398250D-01 -0.121904D-01  0.945839D-01
     19 -0.729638D-01 -0.400858D-01  0.266205D-01  0.859624D-01
     20 -0.722436D-01  0.287793D-01 -0.381948D-01  0.105566D-01  0.807480D-01
     21  0.308797D-01 -0.309935D-01 -0.294020D-01 -0.383412D-02 -0.567897D-02
     22 -0.120708D-01  0.698351D-02 -0.873537D-02 -0.385526D-02  0.202745D-01
     23  0.404841D-03 -0.482972D-03 -0.166899D-03  0.133138D-03 -0.144191D-03
     24 -0.368773D-03 -0.125470D-03  0.208342D-03  0.107272D-03  0.172645D-03
     25 -0.629953D-04 -0.135162D-02  0.202702D-02  0.145518D-01 -0.156498D-01
     26 -0.103362D-01  0.112833D-01  0.575490D-02 -0.138224D-01  0.184686D-02
     27  0.627491D-02 -0.451034D-02 -0.859524D-02 -0.853890D-03  0.146046D-01
     28  0.207024D-02 -0.521858D-02  0.405113D-02  0.153729D-01 -0.172108D-01
     29 -0.820292D-02  0.741629D-02  0.777901D-02 -0.130012D-01  0.285829D-03
     30  0.840814D-02 -0.837730D-02 -0.657113D-02 -0.327398D-04  0.130436D-01
     31  0.386776D-02 -0.333457D-02  0.248682D-03  0.136036D-01 -0.160984D-01
     32 -0.640540D-02  0.930030D-02  0.397656D-02 -0.147705D-01  0.139825D-02
     33  0.102057D-01 -0.649329D-02 -0.103736D-01 -0.180206D-02  0.141560D-01
     34 -0.576259D-02 -0.293300D-01  0.319188D-01  0.145461D-01 -0.850893D-02
     35  0.192199D-01  0.350136D-01  0.642311D-02 -0.271232D-01 -0.166062D-01
     36 -0.205944D-01 -0.513532D-02 -0.365022D-01  0.164891D-01  0.270077D-01
               21            22            23            24            25 
     21  0.405332D-01
     22 -0.187537D-02  0.295331D+00
     23  0.266385D-03 -0.303773D-03  0.384377D-01
     24  0.446938D-04 -0.378585D-04 -0.277911D-03  0.168848D-01
     25 -0.478799D-04 -0.634148D-02  0.446316D-03 -0.218210D-03  0.187213D-01
     26  0.578787D-02  0.228620D-02  0.340932D-03  0.816081D-05  0.742826D-03
     27 -0.703944D-02  0.566693D-02  0.411687D-03 -0.976163D-04  0.387607D-03
     28  0.513110D-03 -0.685235D-02  0.239841D-03 -0.187011D-03  0.946655D-02
     29  0.634886D-02  0.177533D-02  0.134457D-03  0.393596D-04 -0.851197D-02
     30 -0.647845D-02  0.515606D-02  0.205212D-03 -0.664174D-04 -0.886719D-02
     31  0.109615D-02 -0.706628D-02  0.593308D-04 -0.171981D-03  0.961418D-02
     32  0.693190D-02  0.156140D-02 -0.460527D-04  0.543895D-04 -0.836434D-02
     33 -0.589541D-02  0.494213D-02  0.247024D-04 -0.513876D-04 -0.871956D-02
     34 -0.717885D-03 -0.998740D-03  0.219160D-04  0.110964D-03 -0.559436D-02
     35 -0.213349D-01 -0.378070D-02 -0.209170D-03 -0.248007D-03  0.369222D-02
     36  0.213906D-01  0.344386D-02  0.896950D-04 -0.461427D-04  0.203989D-02
               26            27            28            29            30 
     26  0.178760D-01
     27  0.313059D-03  0.170047D-01
     28 -0.821938D-02 -0.813497D-02  0.183496D-01
     29  0.891376D-02 -0.820952D-02  0.663667D-03  0.180894D-01
     30 -0.864914D-02  0.848213D-02  0.748070D-03  0.966118D-03  0.180974D-01
     31 -0.851005D-02 -0.796655D-02  0.862267D-02 -0.950156D-02 -0.895806D-02
     32  0.862309D-02 -0.804109D-02 -0.906326D-02  0.792417D-02 -0.874001D-02
     33 -0.893982D-02  0.865056D-02 -0.897885D-02 -0.919911D-02  0.839126D-02
     34  0.188859D-02  0.118322D-02 -0.365965D-02  0.382330D-02  0.311792D-02
     35 -0.154955D-02 -0.711033D-03  0.276100D-02 -0.248076D-02 -0.164225D-02
     36 -0.485390D-03 -0.126791D-02  0.130112D-02 -0.122416D-02 -0.200668D-02
               31            32            33            34            35 
     31  0.188119D-01
     32  0.687644D-03  0.176751D-01
     33  0.123115D-02  0.101089D-02  0.186013D-01
     34 -0.538967D-02  0.209328D-02  0.138791D-02  0.224618D-01
     35  0.350323D-02 -0.173854D-02 -0.900020D-03 -0.933371D-02  0.304003D-01
     36  0.248302D-02 -0.422574D-04 -0.824779D-03 -0.778832D-02 -0.173556D-01
               36 
     36  0.310537D-01
 Leave Link  716 at Wed Jan 23 23:49:35 2019, MaxMem=  134217728 cpu:       0.0
 (Enter /home/programs/G09_64/g09/l103.exe)

 GradGradGradGradGradGradGradGradGradGradGradGradGradGradGradGradGradGrad
 Berny optimization.
 Red2BG is reusing G-inverse.
 Internal  Forces:  Max     0.041360518 RMS     0.011872853
 Search for a saddle point.
 Step number   1 out of a maximum of   46
 All quantities printed in internal units (Hartrees-Bohrs-Radians)
 Swaping is turned off.
 Second derivative matrix not updated -- analytic derivatives used.
 ITU=  0
     Eigenvalues ---   -0.11305   0.00248   0.00487   0.01688   0.03820
     Eigenvalues ---    0.04006   0.04334   0.07094   0.07757   0.11742
     Eigenvalues ---    0.13909   0.15426   0.16308   0.19407   0.21845
     Eigenvalues ---    0.26663   0.30669   0.46446   0.47470   0.47767
     Eigenvalues ---    0.48288   0.49344   0.60085   0.77505
 Eigenvectors required to have negative eigenvalues:
                          R2        R9        D7        D9        D5
   1                   -0.76803   0.61175  -0.06888  -0.06614   0.06613
                          D8        D6        D4        A1        A2
   1                   -0.06111   0.06110   0.05836   0.05522  -0.04560
 RFO step:  Lambda0=5.051046566D-03 Lambda=-1.14779524D-02.
 Linear search not attempted -- option 19 set.
 Iteration  1 RMS(Cart)=  0.05992390 RMS(Int)=  0.00294980
 Iteration  2 RMS(Cart)=  0.00264004 RMS(Int)=  0.00165174
 Iteration  3 RMS(Cart)=  0.00000945 RMS(Int)=  0.00165172
 Iteration  4 RMS(Cart)=  0.00000005 RMS(Int)=  0.00165172
 Variable       Old X    -DE/DX   Delta X   Delta X   Delta X     New X
                                 (Linear)    (Quad)   (Total)
    R1        2.81805   0.03704   0.00000   0.08157   0.08157   2.89961
    R2        2.61352   0.01095   0.00000  -0.17508  -0.17508   2.43844
    R3        2.04645   0.00127   0.00000   0.00513   0.00513   2.05158
    R4        2.04576   0.00176   0.00000   0.00604   0.00604   2.05181
    R5        2.66429   0.02220   0.00000   0.04328   0.04328   2.70757
    R6        2.06410   0.00556   0.00000   0.00950   0.00950   2.07360
    R7        2.05960   0.00612   0.00000   0.00978   0.00978   2.06938
    R8        1.80937   0.04136   0.00000   0.05746   0.05746   1.86683
    R9        1.69872  -0.02904   0.00000   0.04531   0.04531   1.74404
    A1        1.82046   0.00493   0.00000   0.07033   0.07117   1.89163
    A2        2.02394  -0.00167   0.00000  -0.05266  -0.05628   1.96765
    A3        2.01098  -0.00099   0.00000  -0.03493  -0.03892   1.97206
    A4        1.78352  -0.00029   0.00000   0.05096   0.05219   1.83571
    A5        1.79227  -0.00040   0.00000   0.04528   0.04569   1.83796
    A6        1.98867  -0.00049   0.00000  -0.03414  -0.04091   1.94777
    A7        1.96410   0.00528   0.00000   0.01180   0.01185   1.97595
    A8        1.92509  -0.00364   0.00000  -0.01627  -0.01634   1.90874
    A9        1.92503  -0.00162   0.00000  -0.01585  -0.01595   1.90908
   A10        1.93841   0.00034   0.00000   0.00382   0.00387   1.94228
   A11        1.84219  -0.00124   0.00000   0.01072   0.01078   1.85297
   A12        1.86481   0.00076   0.00000   0.00643   0.00621   1.87102
   A13        1.89196  -0.01869   0.00000  -0.07534  -0.07534   1.81662
   A14        3.06436   0.00248   0.00000   0.05864   0.05864   3.12300
   A15        3.12808   0.00009   0.00000   0.00370   0.00370   3.13178
    D1        1.11837   0.00039   0.00000  -0.00097  -0.00074   1.11763
    D2       -1.05692  -0.00118   0.00000  -0.00230  -0.00200  -1.05892
    D3       -3.11275   0.00111   0.00000   0.00948   0.00962  -3.10313
    D4        3.06440   0.00234   0.00000   0.07982   0.07787  -3.14092
    D5        0.88911   0.00077   0.00000   0.07849   0.07661   0.96572
    D6       -1.16672   0.00306   0.00000   0.09027   0.08823  -1.07849
    D7       -0.83217  -0.00167   0.00000  -0.08190  -0.08015  -0.91232
    D8       -3.00746  -0.00324   0.00000  -0.08323  -0.08142  -3.08887
    D9        1.21990  -0.00095   0.00000  -0.07145  -0.06979   1.15010
   D10       -1.03591   0.00000   0.00000  -0.01334  -0.01331  -1.04922
   D11        1.13204  -0.00058   0.00000  -0.02300  -0.02301   1.10904
   D12       -3.13640  -0.00021   0.00000  -0.00755  -0.00758   3.13921
         Item               Value     Threshold  Converged?
 Maximum Force            0.041361     0.000450     NO 
 RMS     Force            0.011873     0.000300     NO 
 Maximum Displacement     0.180423     0.001800     NO 
 RMS     Displacement     0.060090     0.001200     NO 
 Predicted change in Energy=-3.488239D-03
 GradGradGradGradGradGradGradGradGradGradGradGradGradGradGradGradGradGrad

 Leave Link  103 at Wed Jan 23 23:49:35 2019, MaxMem=  134217728 cpu:       0.0
 (Enter /home/programs/G09_64/g09/l202.exe)
                          Input orientation:                          
 ---------------------------------------------------------------------
 Center     Atomic      Atomic             Coordinates (Angstroms)
 Number     Number       Type             X           Y           Z
 ---------------------------------------------------------------------
      1          6           0        1.235012   -0.008319   -0.230120
      2          6           0       -0.126585   -0.532503    0.244957
      3          8           0       -1.215508    0.334144   -0.095687
      4          1           0        1.483845    1.096694    0.387997
      5          1           0        2.054240   -0.670988    0.031350
      6          1           0        1.247088    0.244817   -1.285901
      7          1           0       -0.088101   -0.717835    1.325810
      8          1           0       -0.336492   -1.491259   -0.240738
      9          1           0       -0.997001    1.184293    0.357540
     10          1           0        1.649515    1.882585    0.842619
 ---------------------------------------------------------------------
                    Distance matrix (angstroms):
                    1          2          3          4          5
     1  C    0.000000
     2  C    1.534410   0.000000
     3  O    2.477984   1.432784   0.000000
     4  H    1.290364   2.295262   2.846391   0.000000
     5  H    1.085648   2.195633   3.423110   1.891361   0.000000
     6  H    1.085770   2.198802   2.736598   1.893062   1.795924
     7  H    2.162166   1.097302   2.097227   2.577407   2.503487
     8  H    2.160752   1.095067   2.031207   3.225901   2.542140
     9  H    2.597989   1.928130   0.987883   2.482579   3.585880
    10  H    2.213165   3.056858   3.389166   0.922904   2.709740
                    6          7          8          9         10
     6  H    0.000000
     7  H    3.087145   0.000000
     8  H    2.571780   1.764640   0.000000
     9  H    2.935890   2.319856   2.820068   0.000000
    10  H    2.715663   3.164643   4.062106   2.779741   0.000000
 Symmetry turned off by external request.
 Stoichiometry    C2H7O(2)
 Framework group  C1[X(C2H7O)]
 Deg. of freedom    24
 Full point group                 C1      NOp   1
 Rotational constants (GHZ):     24.7805616      8.4033247      7.3469666
 Leave Link  202 at Wed Jan 23 23:49:35 2019, MaxMem=  134217728 cpu:       0.0
 (Enter /home/programs/G09_64/g09/l301.exe)
 Standard basis: STO-3G (5D, 7F)
 Ernie: Thresh=  0.10000D-02 Tol=  0.10000D-05 Strict=F.
 Integral buffers will be    131072 words long.
 Raffenetti 2 integral format.
 Two-electron integral symmetry is turned off.
    22 basis functions,    66 primitive gaussians,    22 cartesian basis functions
    14 alpha electrons       13 beta electrons
       nuclear repulsion energy        85.6859840195 Hartrees.
 IExCor=    0 DFT=F Ex=HF Corr=None ExCW=0 ScaHFX=  1.000000
 ScaDFX=  1.000000  1.000000  1.000000  1.000000 ScalE2=  1.000000  1.000000
 IRadAn=      0 IRanWt=     -1 IRanGd=            0 ICorTp=0
 NAtoms=   10 NActive=   10 NUniq=   10 SFac= 1.00D+00 NAtFMM=   50 NAOKFM=F Big=F
 Leave Link  301 at Wed Jan 23 23:49:36 2019, MaxMem=  134217728 cpu:       0.1
 (Enter /home/programs/G09_64/g09/l302.exe)
 NPDir=0 NMtPBC=     1 NCelOv=     1 NCel=       1 NClECP=     1 NCelD=      1
         NCelK=      1 NCelE2=     1 NClLst=     1 CellRange=     0.0.
 One-electron integrals computed using PRISM.
 NBasis=    22 RedAO= T  NBF=    22
 NBsUse=    22 1.00D-06 NBFU=    22
 Leave Link  302 at Wed Jan 23 23:49:36 2019, MaxMem=  134217728 cpu:       0.2
 (Enter /home/programs/G09_64/g09/l303.exe)
 DipDrv:  MaxL=1.
 Leave Link  303 at Wed Jan 23 23:49:36 2019, MaxMem=  134217728 cpu:       0.0
 (Enter /home/programs/G09_64/g09/l401.exe)
 Initial guess read from the read-write file.
 B after Tr=     0.000000    0.000000    0.000000
         Rot=    1.000000    0.000000    0.000000    0.000000 Ang=   0.00 deg.
 Guess basis will be translated and rotated to current coordinates.
 Initial guess <Sx>= 0.0000 <Sy>= 0.0000 <Sz>= 0.5000 <S**2>= 0.7888 S= 0.5192
 Generating alternative initial guess.
 Harris functional with IExCor=  205 diagonalized for initial guess.
 ExpMin= 1.69D-01 ExpMax= 1.31D+02 ExpMxC= 1.31D+02 IAcc=1 IRadAn=         1 AccDes= 0.00D+00
 HarFok:  IExCor=  205 AccDes= 0.00D+00 IRadAn=         1 IDoV= 1
 ScaDFX=  1.000000  1.000000  1.000000  1.000000
 FoFCou: FMM=F IPFlag=           0 FMFlag=      100000 FMFlg1=           0
         NFxFlg=           0 DoJE=T BraDBF=F KetDBF=T FulRan=T
         Omega=  0.000000  0.000000  1.000000  0.000000  0.000000 ICntrl=     500 IOpCl=  0
         NMat0=    1 NMatS0=    1 NMatT0=    0 NMatD0=    1 NMtDS0=    0 NMtDT0=    0
         I1Cent=           4 NGrid=           0.
 Symmetry not used in FoFCou.
 Harris En= -152.784875465275    
 Leave Link  401 at Wed Jan 23 23:49:36 2019, MaxMem=  134217728 cpu:       0.3
 (Enter /home/programs/G09_64/g09/l502.exe)
 UHF open shell SCF:
 Requested convergence on RMS density matrix=1.00D-08 within 128 cycles.
 Requested convergence on MAX density matrix=1.00D-06.
 Requested convergence on             energy=1.00D-06.
 No special actions if energy rises.
 Using DIIS extrapolation, IDIIS=  1040.
 Two-electron integral symmetry not used.
 Keep R1 and R2 ints in memory in canonical form, NReq=884165.
 IEnd=       19882 IEndB=       19882 NGot=   134217728 MDV=   134150703
 LenX=   134150703 LenY=   134149778
 Symmetry not used in FoFDir.
 MinBra= 0 MaxBra= 1 Meth= 1.
 IRaf=       0 NMat=   1 IRICut=       1 DoRegI=T DoRafI=F ISym2E= 0 JSym2E=0.

 Cycle   1  Pass 1  IDiag  1:
 E= -152.557641448406    
 DIIS: error= 1.08D-02 at cycle   1 NSaved=   1.
 NSaved= 1 IEnMin= 1 EnMin= -152.557641448406     IErMin= 1 ErrMin= 1.08D-02
 ErrMax= 1.08D-02 EMaxC= 1.00D-01 BMatC= 7.09D-03 BMatP= 7.09D-03
 IDIUse=3 WtCom= 8.92D-01 WtEn= 1.08D-01
 Coeff-Com:  0.100D+01
 Coeff-En:   0.100D+01
 Coeff:      0.100D+01
 Recover alternate guess density for next cycle.
 RMSDP=1.81D-02 MaxDP=1.62D-01              OVMax= 0.00D+00

 Cycle   2  Pass 1  IDiag  1:
 E= -152.471375887401     Delta-E=        0.086265561006 Rises=F Damp=F
 Switch densities from cycles 1 and 2 for lowest energy.
 DIIS: error= 4.12D-02 at cycle   2 NSaved=   2.
 NSaved= 2 IEnMin= 1 EnMin= -152.557641448406     IErMin= 1 ErrMin= 1.08D-02
 ErrMax= 4.12D-02 EMaxC= 1.00D+00 BMatC= 2.94D-01 BMatP= 7.09D-03
 IDIUse=1 WtCom= 1.00D+00 WtEn= 0.00D+00
 Coeff-Com:  0.997D+00 0.325D-02
 Coeff:      0.997D+00 0.325D-02
 Gap=     0.895 Goal=   None    Shift=    0.000
 Gap=     0.569 Goal=   None    Shift=    0.000
 RMSDP=1.08D-01 MaxDP=1.05D+00 DE= 8.63D-02 OVMax= 0.00D+00

 Cycle   3  Pass 1  IDiag  1:
 E= -152.562277122555     Delta-E=       -0.090901235154 Rises=F Damp=F
 DIIS: error= 6.16D-03 at cycle   3 NSaved=   3.
 NSaved= 3 IEnMin= 3 EnMin= -152.562277122555     IErMin= 3 ErrMin= 6.16D-03
 ErrMax= 6.16D-03 EMaxC= 1.00D+00 BMatC= 1.47D-03 BMatP= 7.09D-03
 IDIUse=1 WtCom= 1.00D+00 WtEn= 0.00D+00
 Coeff-Com: -0.502D+00 0.460D-02 0.150D+01
 Coeff:     -0.502D+00 0.460D-02 0.150D+01
 Gap=     0.871 Goal=   None    Shift=    0.000
 Gap=     0.592 Goal=   None    Shift=    0.000
 RMSDP=2.70D-03 MaxDP=2.45D-02 DE=-9.09D-02 OVMax= 0.00D+00

 Cycle   4  Pass 1  IDiag  1:
 E= -152.563817285627     Delta-E=       -0.001540163072 Rises=F Damp=F
 DIIS: error= 2.28D-03 at cycle   4 NSaved=   4.
 NSaved= 4 IEnMin= 4 EnMin= -152.563817285627     IErMin= 4 ErrMin= 2.28D-03
 ErrMax= 2.28D-03 EMaxC= 1.00D+00 BMatC= 2.24D-04 BMatP= 1.47D-03
 IDIUse=1 WtCom= 1.00D+00 WtEn= 0.00D+00
 Coeff-Com:  0.847D-01 0.120D-03-0.532D+00 0.145D+01
 Coeff:      0.847D-01 0.120D-03-0.532D+00 0.145D+01
 Gap=     0.875 Goal=   None    Shift=    0.000
 Gap=     0.588 Goal=   None    Shift=    0.000
 RMSDP=1.21D-03 MaxDP=1.31D-02 DE=-1.54D-03 OVMax= 0.00D+00

 Cycle   5  Pass 1  IDiag  1:
 E= -152.564108377553     Delta-E=       -0.000291091926 Rises=F Damp=F
 DIIS: error= 9.13D-04 at cycle   5 NSaved=   5.
 NSaved= 5 IEnMin= 5 EnMin= -152.564108377553     IErMin= 5 ErrMin= 9.13D-04
 ErrMax= 9.13D-04 EMaxC= 1.00D+00 BMatC= 4.03D-05 BMatP= 2.24D-04
 IDIUse=1 WtCom= 1.00D+00 WtEn= 0.00D+00
 Coeff-Com:  0.844D-01-0.243D-02-0.174D+00-0.388D+00 0.148D+01
 Coeff:      0.844D-01-0.243D-02-0.174D+00-0.388D+00 0.148D+01
 Gap=     0.875 Goal=   None    Shift=    0.000
 Gap=     0.589 Goal=   None    Shift=    0.000
 RMSDP=6.57D-04 MaxDP=7.67D-03 DE=-2.91D-04 OVMax= 0.00D+00

 Cycle   6  Pass 1  IDiag  1:
 E= -152.564161267279     Delta-E=       -0.000052889727 Rises=F Damp=F
 DIIS: error= 1.64D-04 at cycle   6 NSaved=   6.
 NSaved= 6 IEnMin= 6 EnMin= -152.564161267279     IErMin= 6 ErrMin= 1.64D-04
 ErrMax= 1.64D-04 EMaxC= 1.00D+00 BMatC= 3.05D-06 BMatP= 4.03D-05
 IDIUse=1 WtCom= 1.00D+00 WtEn= 0.00D+00
 Coeff-Com: -0.312D-01 0.736D-03 0.985D-01-0.240D-01-0.410D+00 0.137D+01
 Coeff:     -0.312D-01 0.736D-03 0.985D-01-0.240D-01-0.410D+00 0.137D+01
 Gap=     0.875 Goal=   None    Shift=    0.000
 Gap=     0.589 Goal=   None    Shift=    0.000
 RMSDP=1.38D-04 MaxDP=1.23D-03 DE=-5.29D-05 OVMax= 0.00D+00

 Cycle   7  Pass 1  IDiag  1:
 E= -152.564164409355     Delta-E=       -0.000003142076 Rises=F Damp=F
 DIIS: error= 7.85D-05 at cycle   7 NSaved=   7.
 NSaved= 7 IEnMin= 7 EnMin= -152.564164409355     IErMin= 7 ErrMin= 7.85D-05
 ErrMax= 7.85D-05 EMaxC= 1.00D+00 BMatC= 4.82D-07 BMatP= 3.05D-06
 IDIUse=1 WtCom= 1.00D+00 WtEn= 0.00D+00
 Coeff-Com:  0.520D-02 0.687D-04-0.270D-01 0.503D-01 0.432D-01-0.672D+00
 Coeff-Com:  0.160D+01
 Coeff:      0.520D-02 0.687D-04-0.270D-01 0.503D-01 0.432D-01-0.672D+00
 Coeff:      0.160D+01
 Gap=     0.875 Goal=   None    Shift=    0.000
 Gap=     0.589 Goal=   None    Shift=    0.000
 RMSDP=5.42D-05 MaxDP=3.87D-04 DE=-3.14D-06 OVMax= 0.00D+00

 Cycle   8  Pass 1  IDiag  1:
 E= -152.564164899578     Delta-E=       -0.000000490223 Rises=F Damp=F
 DIIS: error= 3.01D-05 at cycle   8 NSaved=   8.
 NSaved= 8 IEnMin= 8 EnMin= -152.564164899578     IErMin= 8 ErrMin= 3.01D-05
 ErrMax= 3.01D-05 EMaxC= 1.00D+00 BMatC= 6.73D-08 BMatP= 4.82D-07
 IDIUse=1 WtCom= 1.00D+00 WtEn= 0.00D+00
 Coeff-Com:  0.241D-02-0.609D-04-0.578D-02-0.763D-02 0.398D-01-0.350D-01
 Coeff-Com: -0.317D+00 0.132D+01
 Coeff:      0.241D-02-0.609D-04-0.578D-02-0.763D-02 0.398D-01-0.350D-01
 Coeff:     -0.317D+00 0.132D+01
 Gap=     0.875 Goal=   None    Shift=    0.000
 Gap=     0.589 Goal=   None    Shift=    0.000
 RMSDP=1.85D-05 MaxDP=1.51D-04 DE=-4.90D-07 OVMax= 0.00D+00

 Cycle   9  Pass 1  IDiag  1:
 E= -152.564164965470     Delta-E=       -0.000000065892 Rises=F Damp=F
[...]
     32  0.754815D-02  0.157612D-02  0.216708D-03 -0.114370D-03 -0.843635D-02
     33 -0.627380D-02  0.555618D-02  0.284730D-03 -0.154663D-03 -0.912614D-02
     34 -0.685039D-03 -0.410429D-03 -0.408479D-04  0.775065D-04 -0.547974D-02
     35 -0.204236D-01 -0.390519D-02 -0.177558D-03 -0.118161D-03  0.336328D-02
     36  0.205285D-01  0.416528D-02  0.139315D-03 -0.572718D-05  0.204750D-02
               26            27            28            29            30 
     26  0.188526D-01
     27  0.164236D-02  0.175098D-01
     28 -0.864865D-02 -0.857993D-02  0.187993D-01
     29  0.794902D-02 -0.850268D-02  0.232987D-02  0.191058D-01
     30 -0.926118D-02  0.736473D-02  0.239859D-02  0.265410D-02  0.192800D-01
     31 -0.900419D-02 -0.835107D-02  0.700667D-02 -0.102089D-01 -0.955576D-02
     32  0.759348D-02 -0.827382D-02 -0.946278D-02  0.656705D-02 -0.930025D-02
     33 -0.961672D-02  0.759359D-02 -0.939406D-02 -0.988464D-02  0.732566D-02
     34  0.174120D-02  0.130378D-02 -0.333242D-02  0.388851D-02  0.345109D-02
     35 -0.147659D-02 -0.689088D-03  0.231220D-02 -0.252767D-02 -0.174017D-02
     36 -0.456466D-03 -0.104012D-02  0.125449D-02 -0.124947D-02 -0.183313D-02
               31            32            33            34            35 
     31  0.195672D-01
     32  0.235169D-02  0.183815D-01
     33  0.300480D-02  0.251422D-02  0.197245D-01
     34 -0.538523D-02  0.183571D-02  0.139829D-02  0.219617D-01
     35  0.329979D-02 -0.154008D-02 -0.752579D-03 -0.883554D-02  0.300556D-01
     36  0.230453D-02 -0.199436D-03 -0.783087D-03 -0.753772D-02 -0.171100D-01
               36 
     36  0.308896D-01
 Leave Link  716 at Wed Jan 23 23:49:44 2019, MaxMem=  134217728 cpu:       0.1
 (Enter /home/programs/G09_64/g09/l103.exe)

 GradGradGradGradGradGradGradGradGradGradGradGradGradGradGradGradGradGrad
 Berny optimization.
 Red2BG is reusing G-inverse.
 Internal  Forces:  Max     0.000009985 RMS     0.000002322
 Search for a saddle point.
 Step number   1 out of a maximum of    2
 All quantities printed in internal units (Hartrees-Bohrs-Radians)
 Swaping is turned off.
 Second derivative matrix not updated -- analytic derivatives used.
 ITU=  0
     Eigenvalues ---   -0.11814   0.00203   0.00523   0.01587   0.03907
     Eigenvalues ---    0.04687   0.05386   0.07036   0.07346   0.12646
     Eigenvalues ---    0.13964   0.15713   0.16830   0.19849   0.24068
     Eigenvalues ---    0.26270   0.30847   0.39961   0.45314   0.46524
     Eigenvalues ---    0.47475   0.48658   0.54619   0.64690
 Eigenvectors required to have negative eigenvalues:
                          R9        R2        D7        D5        D9
   1                    0.70994  -0.68692  -0.05326   0.05128  -0.05080
                          D6        D8        A3        A2        D4
   1                    0.04644  -0.04597  -0.04568  -0.04484   0.04398
 Angle between quadratic step and forces=  74.83 degrees.
 Linear search not attempted -- option 19 set.
 Iteration  1 RMS(Cart)=  0.00002525 RMS(Int)=  0.00000000
 Iteration  2 RMS(Cart)=  0.00000000 RMS(Int)=  0.00000000
 Variable       Old X    -DE/DX   Delta X   Delta X   Delta X     New X
                                 (Linear)    (Quad)   (Total)
    R1        2.91057   0.00001   0.00000   0.00003   0.00003   2.91060
    R2        2.43997   0.00000   0.00000   0.00002   0.00002   2.43999
    R3        2.05179   0.00000   0.00000   0.00000   0.00000   2.05179
    R4        2.05198   0.00000   0.00000   0.00000   0.00000   2.05198
    R5        2.71080   0.00000   0.00000   0.00000   0.00000   2.71080
    R6        2.07393   0.00000   0.00000   0.00000   0.00000   2.07393
    R7        2.06991   0.00000   0.00000   0.00000   0.00000   2.06991
    R8        1.87282   0.00001   0.00000   0.00001   0.00001   1.87283
    R9        1.76255   0.00000   0.00000   0.00001   0.00001   1.76256
    A1        1.89610   0.00000   0.00000  -0.00001  -0.00001   1.89609
    A2        1.96430   0.00000   0.00000  -0.00001  -0.00001   1.96428
    A3        1.97045   0.00000   0.00000  -0.00001  -0.00001   1.97044
    A4        1.83895   0.00000   0.00000   0.00000   0.00000   1.83895
    A5        1.84304   0.00000   0.00000   0.00000   0.00000   1.84304
    A6        1.94137   0.00000   0.00000   0.00002   0.00002   1.94139
    A7        1.97792   0.00000   0.00000   0.00001   0.00001   1.97792
    A8        1.90789   0.00000   0.00000   0.00000   0.00000   1.90789
    A9        1.90538   0.00000   0.00000   0.00000   0.00000   1.90538
   A10        1.94268   0.00000   0.00000   0.00000   0.00000   1.94268
   A11        1.85510   0.00000   0.00000   0.00000   0.00000   1.85510
   A12        1.87094   0.00000   0.00000   0.00000   0.00000   1.87095
   A13        1.81528   0.00000   0.00000   0.00000   0.00000   1.81528
   A14        3.13871   0.00000   0.00000  -0.00001  -0.00001   3.13869
   A15        3.13443   0.00000   0.00000  -0.00001  -0.00001   3.13442
    D1        1.13953   0.00000   0.00000  -0.00004  -0.00004   1.13949
    D2       -1.03831   0.00000   0.00000  -0.00004  -0.00004  -1.03836
    D3       -3.07983   0.00000   0.00000  -0.00004  -0.00004  -3.07987
    D4       -3.11417   0.00000   0.00000  -0.00005  -0.00005  -3.11422
    D5        0.99118   0.00000   0.00000  -0.00005  -0.00005   0.99112
    D6       -1.05034   0.00000   0.00000  -0.00005  -0.00005  -1.05039
    D7       -0.89861   0.00000   0.00000  -0.00003  -0.00003  -0.89864
    D8       -3.07644   0.00000   0.00000  -0.00004  -0.00004  -3.07648
    D9        1.16522   0.00000   0.00000  -0.00004  -0.00004   1.16519
   D10       -1.08352   0.00000   0.00000   0.00006   0.00006  -1.08345
   D11        1.07540   0.00000   0.00000   0.00007   0.00007   1.07547
   D12        3.10693   0.00000   0.00000   0.00006   0.00006   3.10699
         Item               Value     Threshold  Converged?
 Maximum Force            0.000010     0.000450     YES
 RMS     Force            0.000002     0.000300     YES
 Maximum Displacement     0.000062     0.001800     YES
 RMS     Displacement     0.000025     0.001200     YES
 Predicted change in Energy=-3.283612D-10
 Optimization completed.
    -- Stationary point found.
                           ----------------------------
                           !   Optimized Parameters   !
                           ! (Angstroms and Degrees)  !
 --------------------------                            --------------------------
 ! Name  Definition              Value          Derivative Info.                !
 --------------------------------------------------------------------------------
 ! R1    R(1,2)                  1.5402         -DE/DX =    0.0                 !
 ! R2    R(1,4)                  1.2912         -DE/DX =    0.0                 !
 ! R3    R(1,5)                  1.0858         -DE/DX =    0.0                 !
 ! R4    R(1,6)                  1.0859         -DE/DX =    0.0                 !
 ! R5    R(2,3)                  1.4345         -DE/DX =    0.0                 !
 ! R6    R(2,7)                  1.0975         -DE/DX =    0.0                 !
 ! R7    R(2,8)                  1.0954         -DE/DX =    0.0                 !
 ! R8    R(3,9)                  0.9911         -DE/DX =    0.0                 !
 ! R9    R(4,10)                 0.9327         -DE/DX =    0.0                 !
 ! A1    A(2,1,4)              108.6384         -DE/DX =    0.0                 !
 ! A2    A(2,1,5)              112.5458         -DE/DX =    0.0                 !
 ! A3    A(2,1,6)              112.8983         -DE/DX =    0.0                 !
 ! A4    A(4,1,5)              105.3641         -DE/DX =    0.0                 !
 ! A5    A(4,1,6)              105.5982         -DE/DX =    0.0                 !
 ! A6    A(5,1,6)              111.2321         -DE/DX =    0.0                 !
 ! A7    A(1,2,3)              113.3263         -DE/DX =    0.0                 !
 ! A8    A(1,2,7)              109.3142         -DE/DX =    0.0                 !
 ! A9    A(1,2,8)              109.1701         -DE/DX =    0.0                 !
 ! A10   A(3,2,7)              111.3072         -DE/DX =    0.0                 !
 ! A11   A(3,2,8)              106.2894         -DE/DX =    0.0                 !
 ! A12   A(7,2,8)              107.1972         -DE/DX =    0.0                 !
 ! A13   A(2,3,9)              104.0077         -DE/DX =    0.0                 !
 ! A14   L(1,4,10,2,-1)        179.8348         -DE/DX =    0.0                 !
 ! A15   L(1,4,10,2,-2)        179.5896         -DE/DX =    0.0                 !
 ! D1    D(4,1,2,3)             65.29           -DE/DX =    0.0                 !
 ! D2    D(4,1,2,7)            -59.4909         -DE/DX =    0.0                 !
 ! D3    D(4,1,2,8)           -176.4613         -DE/DX =    0.0                 !
 ! D4    D(5,1,2,3)           -178.4287         -DE/DX =    0.0                 !
 ! D5    D(5,1,2,7)             56.7904         -DE/DX =    0.0                 !
 ! D6    D(5,1,2,8)            -60.18           -DE/DX =    0.0                 !
 ! D7    D(6,1,2,3)            -51.4864         -DE/DX =    0.0                 !
 ! D8    D(6,1,2,7)           -176.2673         -DE/DX =    0.0                 !
 ! D9    D(6,1,2,8)             66.7624         -DE/DX =    0.0                 !
 ! D10   D(1,2,3,9)            -62.0809         -DE/DX =    0.0                 !
 ! D11   D(7,2,3,9)             61.6162         -DE/DX =    0.0                 !
 ! D12   D(8,2,3,9)            178.0139         -DE/DX =    0.0                 !
 --------------------------------------------------------------------------------
 GradGradGradGradGradGradGradGradGradGradGradGradGradGradGradGradGradGrad

 Leave Link  103 at Wed Jan 23 23:49:44 2019, MaxMem=  134217728 cpu:       0.0
 (Enter /home/programs/G09_64/g09/l9999.exe)
 1\1\GINC-AF2CIQUS\Freq\UHF\STO-3G\C2H7O1(2)\RAMOS\23-Jan-2019\0\\#P Ge
 om=AllCheck Guess=TCheck SCRF=Check GenChk UHF/STO-3G Freq\\--pru\\0,2
 \C,1.2368384068,-0.0042724002,-0.2307525592\C,-0.1301946403,-0.5310910
 346,0.2445635232\O,-1.2240758034,0.3262245906,-0.1107005439\H,1.494827
 421,1.0960571854,0.3936343229\H,2.0521251445,-0.6757565939,0.020823392
 5\H,1.2479720586,0.2495689564,-1.2864677259\H,-0.0954797738,-0.7052757
 255,1.3275724892\H,-0.3291850692,-1.4967801458,-0.2325531228\H,-1.0275
 922399,1.1744683463,0.3626524428\H,1.6807780385,1.8884874833,0.8490539
 116\\Version=AM64L-G09RevB.01\HF=-152.5642433\S2=0.787099\S2-1=0.\S2A=
 0.750312\RMSD=1.061e-09\RMSF=3.529e-06\ZeroPoint=0.0917634\Thermal=0.0
 9636\Dipole=0.4329526,0.0237076,0.2740489\DipoleDeriv=-0.0008247,0.142
 9656,0.0280843,0.1424941,0.2870701,0.181266,0.0664613,0.1864954,0.0735
 239,0.4199047,-0.0166543,-0.0605758,-0.1291111,0.2103185,-0.0754877,-0
 .1351222,-0.1145469,0.2189042,-0.3893312,0.0640343,0.1424668,0.1183153
 ,-0.1672428,0.1995274,0.171675,0.1774482,-0.3122477,-0.0207975,-0.0972
 187,-0.0407954,-0.1424087,-0.366249,-0.2043601,-0.0686442,-0.2197008,-
 0.0921994,-0.0406991,-0.0108014,-0.0212713,0.0044388,-0.0101464,0.0057
 96,0.0128037,-0.027754,0.0082911,-0.0127493,-0.028094,0.0145002,-0.030
 7879,-0.0273307,-0.0292569,0.0077941,0.0252131,-0.0160047,-0.0701653,0
 .0198533,0.0389938,0.0221582,-0.0140191,-0.0018325,0.0027868,0.0408816
 ,-0.079392,-0.047251,-0.0524965,-0.0199283,-0.0011974,-0.02238,-0.0167
 265,0.0112753,0.0056402,0.0251162,0.1706742,-0.0682669,-0.106941,-0.04
 12469,-0.03728,-0.1514935,-0.1024919,-0.1706075,0.1475145,-0.0087609,0
 .0466786,0.0254667,0.0573455,0.1472595,0.0925677,0.0334621,0.0969306,0
 .026494\Polar=13.7876692,0.8320972,21.482733,1.3518405,4.1846031,13.34
 43368\PolarDeriv=1.0079611,1.4541276,-1.7328777,-1.0040919,-0.4232638,
 -0.1844956,1.7260485,-1.2234633,-1.6228689,-0.4031201,-1.6314995,-0.90
 81702,-0.8618231,-0.3207136,-1.3685664,-0.2269009,-0.9981366,2.21716,0
 .0329624,-1.8650263,2.4291464,1.3317965,0.4264929,0.0128533,-2.0658078
 ,2.245279,2.7713785,0.6085487,1.4336873,0.7083614,1.9693291,0.1355126,
 1.8035568,0.3186132,1.4971063,-2.4660687,-5.9621565,1.3427309,-1.50066
 55,-1.7538124,-0.2360984,-0.088113,0.884307,-1.8243938,-1.8978708,0.38
 40625,-1.692091,-0.1930607,-1.0477019,0.8536731,-1.8577916,-1.994803,-
 0.488389,-1.7824477,0.0708425,-0.0624436,0.062248,0.1439935,0.0479931,
 0.0124753,-0.1144554,0.1505647,0.3973263,-0.109398,0.2404664,0.1446119
 ,0.2047579,0.0126683,0.1561373,0.047727,0.2935132,-0.0751451,4.4916126
 ,-2.3572272,0.8530338,0.4325496,0.2147837,0.1306423,-0.868809,2.158516
 6,-2.843229,0.0658909,0.6431103,0.1062231,0.181921,0.0148648,0.6318429
 ,1.723191,-1.1382168,0.3001114,0.2735823,0.0277284,0.2421705,-2.191242
 9,0.0249279,0.2450669,-0.2701403,0.4614826,1.1297344,-0.0640131,-1.640
 1572,0.657102,-0.1725349,-0.0423997,0.0443164,0.6040667,0.5406204,-5.9
 670631,-0.0081694,-0.5512468,-0.2795048,2.2333222,-0.0599768,-0.104195
 2,0.2855785,-0.3363775,-1.7921949,-0.1063101,2.0187571,-0.3384844,0.01
 21415,0.0144675,0.3077318,-0.303539,-1.5821648,5.4202999,-1.2384239,-2
 .0944364,-0.7095282,-1.2131229,-0.1330688,-0.0513716,-0.0989989,-1.452
 5645,-6.213358,-0.2463211,-1.5418524,-0.2609634,-0.5990869,-0.2567731,
 -0.8205885,-0.6631491,-2.4694351,-1.4957224,-0.3046288,1.6481962,0.427
 4194,0.7392471,0.0864035,0.0125485,0.390701,-1.1500335,5.3361782,-0.23
 63565,0.9940608,0.1442363,0.3013035,-0.4602295,1.1114911,-0.3374207,2.
 0406317,1.3575798,1.6364176,2.4575971,0.2085581,1.2813612,0.0518068,0.
 0145891,0.1315763,0.9709897,4.7349042,0.1070169,1.1755181,-0.0598559,0
 .0116938,0.0489296,-0.0081298,0.8322147,2.3044707,2.491296\HyperPolar=
 12.4757531,-1.9120567,10.1939305,16.6485526,4.2050532,0.7697575,10.684
 6862,2.4884463,3.8644013,1.5456234\PG=C01 [X(C2H7O1)]\NImag=1\\0.70821
 619,-0.13280954,0.43363029,-0.00814572,-0.21454262,0.70304072,-0.25399
 372,-0.06065072,0.05485756,0.70055377,-0.07233366,-0.12451226,0.041308
 76,-0.00780387,0.82278955,0.05312681,0.03144944,-0.13578128,0.04334898
 ,0.03456809,0.82907234,-0.04540298,0.03323569,-0.01256146,-0.26787776,
 0.09431153,-0.09786270,0.39603808,0.00149764,0.00871633,-0.00404002,0.
 17116245,-0.22014227,0.05270724,-0.08560150,0.70947043,0.00337955,-0.0
 0604107,0.00887583,-0.06185048,-0.00094523,-0.11383054,0.18329032,0.21
 017799,0.26183281,-0.04031129,0.04200847,0.02133544,-0.00563739,-0.024
 55518,-0.01368717,0.00198196,-0.00053061,0.00035992,0.06057682,0.04636
 278,0.11615768,0.09200304,-0.00417204,-0.02351058,-0.01275832,0.001465
 37,0.00015630,0.00091259,-0.05192251,-0.14404818,0.02481922,0.09595896
 ,-0.00169256,0.00053776,-0.00089945,-0.00031346,-0.00005067,-0.0000302
 9,0.00011960,-0.03108301,-0.12273295,0.00201180,-0.28794545,0.18643796
 ,-0.06468614,-0.01886342,0.02589470,-0.01013143,-0.00618909,-0.0024144
 8,0.00200253,0.00390932,-0.01233202,-0.00280532,0.29847742,0.19642580,
 -0.21129538,0.07409009,-0.01570731,0.01361540,-0.00411041,-0.00464791,
 -0.00026474,0.00085547,0.01319172,-0.02249908,-0.00038677,-0.19512702,
 0.21435947,-0.05745201,0.06569075,-0.09004625,0.00940841,-0.01012619,0
 .00442266,0.00338957,0.00053098,0.00036852,0.00836148,-0.01871145,-0.0
 0229672,0.06925868,-0.06881480,0.08474404,-0.07622297,0.00681569,0.001
 92814,0.00454669,-0.00834977,0.04154134,0.00417766,0.00063055,-0.00181
 589,-0.00056541,-0.00141967,-0.00593948,0.00532747,0.00363936,-0.03289
 281,0.06875778,0.00696170,-0.07067472,0.08725942,0.00169614,-0.0018728
 6,0.01564716,0.00036962,0.00025066,-0.00084194,-0.00399893,-0.01063440
 ,-0.03239731,-0.00423823,-0.00089333,0.02688385,-0.00106193,0.07536461
 ,0.00231577,0.10214635,-0.44509696,-0.00296594,-0.00026339,-0.00405706
 ,-0.00131675,-0.00035131,0.00073626,-0.00081359,0.00076463,-0.01043674
 ,0.00540484,-0.00450333,-0.00009617,-0.00392154,-0.10060540,0.45538945
 ,0.00291187,-0.00680188,0.04255349,-0.07199536,-0.00023530,-0.00635097
 ,-0.01140070,0.01447484,-0.03899750,0.00110657,0.00072016,-0.00011639,
 0.00208891,0.00051600,-0.00099746,-0.00743190,-0.00292270,0.00062584,0
 .08101626,-0.00198206,-0.00097688,0.01743352,-0.00378784,-0.08925756,0
 .04823240,0.01374055,-0.00718969,0.03076014,0.00087796,0.00101169,0.00
 050686,0.00002060,0.00009823,-0.00051115,-0.00276379,0.00019721,0.0004
 9471,-0.00471512,0.08294796,-0.00203189,-0.00018728,-0.00690441,-0.004
 43266,0.04505824,-0.42797195,-0.00851508,0.00576968,-0.00465286,-0.000
 67745,-0.00080991,0.00027667,-0.00013572,-0.00026144,0.00064668,0.0009
 4991,0.00011742,0.00090898,0.01214342,-0.05795396,0.44682713,-0.009767
 51,-0.03220711,-0.01505035,-0.08576499,-0.06928876,-0.03624031,0.00951
 093,0.03625754,0.01904005,-0.00413374,-0.00391870,0.00028522,0.0020791
 8,0.00111159,-0.00002195,0.00159659,0.00139304,-0.00013039,0.00188861,
 0.00050018,0.00177889,0.09090290,-0.00411370,-0.00915916,-0.00630815,-
 0.05987960,-0.35327528,-0.14299080,-0.00134524,-0.02595194,-0.01205024
 ,-0.00025894,0.00165418,0.00106946,0.00033301,0.00087686,0.00024889,0.
 00116705,0.00096122,-0.00007211,0.00135512,0.01074493,0.00830558,0.058
 26584,0.37691108,0.00567777,0.01444158,0.00803617,-0.03117446,-0.14069
 842,-0.15602402,0.00466128,0.01192176,0.01005108,0.00198953,0.00223748
 ,0.00087143,-0.00049803,-0.00028013,0.00004456,-0.00082688,-0.00035234
 ,0.00072002,-0.00914037,-0.04023903,-0.01162725,0.03253455,0.15040495,
 0.14762282,0.00214976,0.00088257,0.00066367,-0.00173044,0.05988634,0.0
 2540803,-0.08079946,-0.13556230,-0.10534044,-0.00025210,0.00047846,0.0
 0011374,0.00032236,-0.00015781,-0.00010285,-0.00025180,-0.00004925,0.0
 0014896,0.00179833,-0.00198537,0.00081959,-0.00674438,0.00453322,-0.00
 312820,0.08562061,-0.00203580,0.00318469,-0.00062547,-0.02316788,-0.03
 103336,-0.02623907,-0.05118935,-0.46531773,-0.22242934,0.00057614,0.00
 083657,0.00005618,-0.00078401,-0.00010221,0.00045265,0.00000282,-0.000
 01331,0.00013682,-0.00231039,0.00243883,-0.00041489,0.00676981,-0.0022
 3366,0.00306397,0.07239155,0.49240719,-0.00002657,-0.00064232,-0.00004
 063,-0.00867685,0.02788132,0.00247025,-0.07079899,-0.27679593,-0.16334
 124,0.00006388,-0.00007409,0.00012983,-0.00003945,0.00027906,-0.000063
 32,0.00012980,-0.00014752,-0.00023671,0.00046863,0.00147144,0.00228384
 ,-0.00274390,0.00181594,0.00066438,0.08168376,0.24609766,0.15813183,0.
 00036609,-0.03691113,-0.02089463,0.00076262,0.00247398,0.00084742,-0.0
 0003864,0.00008586,-0.00006807,-0.01667475,0.02473816,0.01423892,0.000
 79329,0.00075558,0.00104894,0.00006590,0.00185055,0.00065281,0.0000174
 1,0.00009489,0.00010099,0.00043241,-0.00005676,-0.00009519,-0.00011288
 ,-0.00025289,-0.00006031,0.01438854,-0.03797315,-0.14507059,-0.0865785
 7,0.00231067,0.00719922,0.00349427,-0.00033875,0.00027266,-0.00039835,
 0.02461188,0.08087582,0.05885532,0.00220948,0.00610479,0.00435647,0.00
 133970,0.00731492,0.00225304,-0.00008073,-0.00001471,0.00037657,0.0011
 1656,-0.00052822,-0.00049983,-0.00041742,-0.00016701,0.00011443,0.0072
 2177,0.04401312,-0.02166294,-0.08827379,-0.04039062,0.00094768,0.00411
 629,0.00201306,-0.00023551,0.00010991,-0.00015945,0.01415096,0.0591689
 7,0.01133015,0.00163002,0.00313227,0.00227600,0.00084741,0.00443666,0.
 00216893,-0.00018868,-0.00019494,0.00021317,0.00054819,-0.00042351,-0.
 00035919,-0.00026627,-0.00009850,0.00000178,0.00422914,0.01802664,0.02
 290616\\-0.00001122,-0.00000088,0.00000590,0.00000728,0.00000329,-0.00
 000265,0.00000228,0.00000674,0.00000278,-0.00000011,0.00000063,0.00000
 099,0.00000089,0.00000021,-0.00000214,0.00000190,-0.00000071,-0.000000
 24,0.00000007,0.00000048,-0.00000002,0.00000065,0.,0.00000029,-0.00000
 128,-0.00000702,-0.00000297,-0.00000047,-0.00000275,-0.00000194\\\@


 REFRAIN FROM ILLUSIONS, INSIST ON WORK AND NOT WORDS,
 PATIENTLY SEEK DIVINE AND SCIENTIFIC TRUTH.
 LAST WORDS OF MARIA MENDELEEVA TO HER SON DMITRI, C. 1850
 Job cpu time:  0 days  0 hours  0 minutes  2.4 seconds.
 File lengths (MBytes):  RWF=      5 Int=      0 D2E=      0 Chk=      1 Scr=      1
 Normal termination of Gaussian 09 at Wed Jan 23 23:49:44 2019.
