 Entering Gaussian System, Link 0=/home/programs/G09_64/g09/g09
 Initial command:
 /home/programs/G09_64/g09/l1.exe /scratch/Gau-14145.inp -scrdir=/scratch/
 Entering Link 1 = /home/programs/G09_64/g09/l1.exe PID=     14147.
  
 Copyright (c) 1988,1990,1992,1993,1995,1998,2003,2009,2010,
            Gaussian, Inc.  All Rights Reserved.
  
 This is part of the Gaussian(R) 09 program.  It is based on
 the Gaussian(R) 03 system (copyright 2003, Gaussian, Inc.),
 the Gaussian(R) 98 system (copyright 1998, Gaussian, Inc.),
 the Gaussian(R) 94 system (copyright 1995, Gaussian, Inc.),
 the Gaussian 92(TM) system (copyright 1992, Gaussian, Inc.),
 the Gaussian 90(TM) system (copyright 1990, Gaussian, Inc.),
 the Gaussian 88(TM) system (copyright 1988, Gaussian, Inc.),
 the Gaussian 86(TM) system (copyright 1986, Carnegie Mellon
 University), and the Gaussian 82(TM) system (copyright 1983,
 Carnegie Mellon University). Gaussian is a federally registered
 trademark of Gaussian, Inc.
  
 This software contains proprietary and confidential information,
 including trade secrets, belonging to Gaussian, Inc.
  
 This software is provided under written license and may be
 used, copied, transmitted, or stored only in accord with that
 written license.
  
 The following legend is applicable only to US Government
 contracts under FAR:
  
                    RESTRICTED RIGHTS LEGEND
  
 Use, reproduction and disclosure by the US Government is
 subject to restrictions as set forth in subparagraphs (a)
 and (c) of the Commercial Computer Software - Restricted
 Rights clause in FAR 52.227-19.
  
 Gaussian, Inc.
 340 Quinnipiac St., Bldg. 40, Wallingford CT 06492
  
  
 ---------------------------------------------------------------
 Warning -- This program may not be used in any manner that
 competes with the business of Gaussian, Inc. or will provide
 assistance to any competitor of Gaussian, Inc.  The licensee
 of this program is prohibited from giving any competitor of
 Gaussian, Inc. access to this program.  By using this program,
 the user acknowledges that Gaussian, Inc. is engaged in the
 business of creating and licensing software in the field of
 computational chemistry and represents and warrants to the
 licensee that it is not a competitor of Gaussian, Inc. and that
 it will not use this program in any manner prohibited above.
 ---------------------------------------------------------------
  

 Cite this work as:
 Gaussian 09, Revision B.01,
 M. J. Frisch, G. W. Trucks, H. B. Schlegel, G. E. Scuseria, 
 M. A. Robb, J. R. Cheeseman, G. Scalmani, V. Barone, B. Mennucci, 
 G. A. Petersson, H. Nakatsuji, M. Caricato, X. Li, H. P. Hratchian, 
 A. F. Izmaylov, J. Bloino, G. Zheng, J. L. Sonnenberg, M. Hada, 
 M. Ehara, K. Toyota, R. Fukuda, J. Hasegawa, M. Ishida, T. Nakajima, 
 Y. Honda, O. Kitao, H. Nakai, T. Vreven, J. A. Montgomery, Jr., 
 J. E. Peralta, F. Ogliaro, M. Bearpark, J. J. Heyd, E. Brothers, 
 K. N. Kudin, V. N. Staroverov, T. Keith, R. Kobayashi, J. Normand, 
 K. Raghavachari, A. Rendell, J. C. Burant, S. S. Iyengar, J. Tomasi, 
 M. Cossi, N. Rega, J. M. Millam, M. Klene, J. E. Knox, J. B. Cross, 
 V. Bakken, C. Adamo, J. Jaramillo, R. Gomperts, R. E. Stratmann, 
 O. Yazyev, A. J. Austin, R. Cammi, C. Pomelli, J. W. Ochterski, 
 R. L. Martin, K. Morokuma, V. G. Zakrzewski, G. A. Voth, 
 P. Salvador, J. J. Dannenberg, S. Dapprich, A. D. Daniels, 
 O. Farkas, J. B. Foresman, J. V. Ortiz, J. Cioslowski, 
 and D. J. Fox, Gaussian, Inc., Wallingford CT, 2010.
 
 ******************************************
 Gaussian 09:  AM64L-G09RevB.01 12-Aug-2010
                 4-Feb-2019 
 ******************************************
 ----------------------------------------
 #n hf/sto-3g scf=verytight freq units=au
 ----------------------------------------
 1/10=4,20=1,30=1,38=1/1,3;
 2/12=2,17=6,18=5,40=1/2;
 3/6=3,11=9,16=1,25=1,30=1,71=2/1,2,3;
 4//1;
 5/5=2,17=3,38=5,98=1/2;
 8/6=4,10=90,11=11/1;
 10/13=10,15=4/2;
 11/6=3,8=1,9=11,15=111,16=1/1,2,10;
 10/6=1/2;
 6/7=2,8=2,9=2,10=2,18=1,28=1/1;
 7/8=1,10=1,25=1/1,2,3,16;
 1/10=4,30=1/3;
 99//99;
 --
 --
 --
 Symbolic Z-matrix:
 Charge =  0 Multiplicity = 2
 C                     2.48005  -0.44975  -0.17802 
 C                    -0.05199   0.76026   0.59443 
 O                    -2.23991  -0.49957  -0.33829 
 H                     2.58433  -0.65789  -2.21665 
 H                     4.04157   0.72657   0.44367 
 H                     2.69278  -2.30792   0.67449 
 H                    -0.13902   1.11588   2.63513 
 H                    -0.14195   2.95462  -0.41632 
 H                    -2.18278  -2.18956   0.47289 
 H                    -0.21641   4.58965  -1.18248 
 

 GradGradGradGradGradGradGradGradGradGradGradGradGradGradGradGradGradGrad
 Berny optimization.
 Initialization pass.
 Trust Radius=3.00D-01 FncErr=1.00D-07 GrdErr=1.00D-07
 Number of steps in this run=      2 maximum allowed number of steps=      2.
 GradGradGradGradGradGradGradGradGradGradGradGradGradGradGradGradGradGrad

                          Input orientation:                          
 ---------------------------------------------------------------------
 Center     Atomic      Atomic             Coordinates (Angstroms)
 Number     Number       Type             X           Y           Z
 ---------------------------------------------------------------------
      1          6           0        1.312388   -0.237999   -0.094206
      2          6           0       -0.027511    0.402313    0.314561
      3          8           0       -1.185312   -0.264361   -0.179014
      4          1           0        1.367567   -0.348138   -1.173001
      5          1           0        2.138707    0.384484    0.234780
      6          1           0        1.424956   -1.221297    0.356927
      7          1           0       -0.073567    0.590497    1.394453
      8          1           0       -0.075114    1.563517   -0.220306
      9          1           0       -1.155076   -1.158663    0.250241
     10          1           0       -0.114521    2.428739   -0.625741
 ---------------------------------------------------------------------
                    Distance matrix (angstroms):
                    1          2          3          4          5
     1  C    0.000000
     2  C    1.540266   0.000000
     3  O    2.499278   1.424280   0.000000
     4  H    1.085806   2.173077   2.740843   0.000000
     5  H    1.085597   2.167761   3.411939   1.764437   0.000000
     6  H    1.087689   2.178891   2.831335   1.762492   1.761503
     7  H    2.196220   1.097133   2.107738   3.090263   2.506280
     8  H    2.277394   1.279352   2.139014   2.577476   2.549162
     9  H    2.656058   1.926704   0.992447   3.007707   3.637383
    10  H    3.070845   2.235652   2.932396   3.194859   3.161727
                    6          7          8          9         10
     6  H    0.000000
     7  H    2.569947   0.000000
     8  H    3.215369   1.885263   0.000000
     9  H    2.582997   2.353390   2.966141   0.000000
    10  H    4.081469   2.731665   0.956316   3.836607   0.000000
 Stoichiometry    C2H7O(2)
 Framework group  C1[X(C2H7O)]
 Deg. of freedom    24
 Full point group                 C1      NOp   1
 Largest Abelian subgroup         C1      NOp   1
 Largest concise Abelian subgroup C1      NOp   1
                         Standard orientation:                         
 ---------------------------------------------------------------------
 Center     Atomic      Atomic             Coordinates (Angstroms)
 Number     Number       Type             X           Y           Z
 ---------------------------------------------------------------------
      1          6           0        1.247954   -0.279115   -0.098182
      2          6           0       -0.091945    0.361197    0.310584
      3          8           0       -1.249746   -0.305477   -0.182991
      4          1           0        1.303134   -0.389254   -1.176978
      5          1           0        2.074273    0.343368    0.230803
      6          1           0        1.360522   -1.262413    0.352950
      7          1           0       -0.138001    0.549381    1.390476
      8          1           0       -0.139548    1.522400   -0.224283
      9          1           0       -1.219510   -1.199779    0.246264
     10          1           0       -0.178955    2.387623   -0.629718
 ---------------------------------------------------------------------
 Rotational constants (GHZ):     23.5696323      8.6012180      7.3389595
 Standard basis: STO-3G (5D, 7F)
 There are    22 symmetry adapted basis functions of A   symmetry.
 Integral buffers will be    131072 words long.
 Raffenetti 2 integral format.
 Two-electron integral symmetry is turned on.
    22 basis functions,    66 primitive gaussians,    22 cartesian basis functions
    14 alpha electrons       13 beta electrons
       nuclear repulsion energy        85.6310186594 Hartrees.
 NAtoms=   10 NActive=   10 NUniq=   10 SFac= 1.00D+00 NAtFMM=   50 NAOKFM=F Big=F
 One-electron integrals computed using PRISM.
 NBasis=    22 RedAO= T  NBF=    22
 NBsUse=    22 1.00D-06 NBFU=    22
 Harris functional with IExCor=  205 diagonalized for initial guess.
 ExpMin= 1.69D-01 ExpMax= 1.31D+02 ExpMxC= 1.31D+02 IAcc=1 IRadAn=         1 AccDes= 0.00D+00
 HarFok:  IExCor=  205 AccDes= 0.00D+00 IRadAn=         1 IDoV= 1
 ScaDFX=  1.000000  1.000000  1.000000  1.000000
 FoFCou: FMM=F IPFlag=           0 FMFlag=      100000 FMFlg1=           0
         NFxFlg=           0 DoJE=T BraDBF=F KetDBF=T FulRan=T
         Omega=  0.000000  0.000000  1.000000  0.000000  0.000000 ICntrl=     500 IOpCl=  0
         NMat0=    1 NMatS0=    1 NMatT0=    0 NMatD0=    1 NMtDS0=    0 NMtDT0=    0
         I1Cent=           4 NGrid=           0.
 Petite list used in FoFCou.
 Initial guess orbital symmetries:
 Alpha Orbitals:
       Occupied  (A) (A) (A) (A) (A) (A) (A) (A) (A) (A) (A) (A)
                 (A) (A)
       Virtual   (A) (A) (A) (A) (A) (A) (A) (A)
 Beta  Orbitals:
       Occupied  (A) (A) (A) (A) (A) (A) (A) (A) (A) (A) (A) (A)
                 (A)
       Virtual   (A) (A) (A) (A) (A) (A) (A) (A) (A)
 The electronic state of the initial guess is 2-A.
 Initial guess <Sx>= 0.0000 <Sy>= 0.0000 <Sz>= 0.5000 <S**2>= 0.7500 S= 0.5000
 Requested convergence on RMS density matrix=1.00D-08 within 128 cycles.
 Requested convergence on MAX density matrix=1.00D-06.
 Requested convergence on             energy=1.00D-06.
 No special actions if energy rises.
 Keep R1 and R2 ints in memory in canonical form, NReq=884200.
 SCF Done:  E(UHF) =  -152.567934405     A.U. after   15 cycles
             Convg  =    0.7799D-08             -V/T =  2.0064
 <Sx>= 0.0000 <Sy>= 0.0000 <Sz>= 0.5000 <S**2>= 0.7875 S= 0.5186
 <L.S>= 0.000000000000E+00
 Annihilation of the first spin contaminant:
 S**2 before annihilation     0.7875,   after     0.7503
 Range of M.O.s used for correlation:     1    22
 NBasis=    22 NAE=    14 NBE=    13 NFC=     0 NFV=     0
 NROrb=     22 NOA=    14 NOB=    13 NVA=     8 NVB=     9
          Differentiating once with respect to electric field.
                with respect to dipole field.
          Electric field/nuclear overlap derivatives assumed to be zero.
          Keep R1 and R2 ints in memory in canonical form, NReq=864769.
          There are     3 degrees of freedom in the 1st order CPHF.  IDoFFX=0.
      3 vectors produced by pass  0 Test12= 7.63D-15 3.33D-08 XBig12= 8.83D+00 1.52D+00.
 AX will form     3 AO Fock derivatives at one time.
      3 vectors produced by pass  1 Test12= 7.63D-15 3.33D-08 XBig12= 1.50D-01 1.03D-01.
      3 vectors produced by pass  2 Test12= 7.63D-15 3.33D-08 XBig12= 6.45D-03 3.08D-02.
      3 vectors produced by pass  3 Test12= 7.63D-15 3.33D-08 XBig12= 2.18D-04 6.53D-03.
      3 vectors produced by pass  4 Test12= 7.63D-15 3.33D-08 XBig12= 5.15D-06 5.37D-04.
      3 vectors produced by pass  5 Test12= 7.63D-15 3.33D-08 XBig12= 1.73D-07 1.06D-04.
      3 vectors produced by pass  6 Test12= 7.63D-15 3.33D-08 XBig12= 2.36D-09 1.49D-05.
      3 vectors produced by pass  7 Test12= 7.63D-15 3.33D-08 XBig12= 5.10D-11 1.53D-06.
      3 vectors produced by pass  8 Test12= 7.63D-15 3.33D-08 XBig12= 1.31D-12 2.59D-07.
      2 vectors produced by pass  9 Test12= 7.63D-15 3.33D-08 XBig12= 2.51D-14 3.60D-08.
 Inverted reduced A of dimension    29 with in-core refinement.
 End of Minotr Frequency-dependent properties file   721 does not exist.
 End of Minotr Frequency-dependent properties file   722 does not exist.
 Symmetrizing basis deriv contribution to polar:
 IMax=3 JMax=2 DiffMx= 0.00D+00
 G2DrvN: will do    11 centers at a time, making    1 passes doing MaxLOS=1.
 Calling FoFCou, ICntrl=  3107 FMM=F I1Cent=   0 AccDes= 0.00D+00.
 FoFDir/FoFCou used for L=0 through L=1.
 End of G2Drv Frequency-dependent properties file   721 does not exist.
 End of G2Drv Frequency-dependent properties file   722 does not exist.
          IDoAtm=1111111111
          Differentiating once with respect to electric field.
                with respect to dipole field.
          Differentiating once with respect to nuclear coordinates.
          Keep R1 and R2 ints in memory in canonical form, NReq=864982.
          There are    33 degrees of freedom in the 1st order CPHF.  IDoFFX=5.
 Will reuse    3 saved solutions.
     27 vectors produced by pass  0 Test12= 6.94D-16 3.03D-09 XBig12= 7.78D-02 1.64D-01.
 AX will form    27 AO Fock derivatives at one time.
     27 vectors produced by pass  1 Test12= 6.94D-16 3.03D-09 XBig12= 7.43D-04 6.45D-03.
     27 vectors produced by pass  2 Test12= 6.94D-16 3.03D-09 XBig12= 1.04D-05 9.37D-04.
     27 vectors produced by pass  3 Test12= 6.94D-16 3.03D-09 XBig12= 8.40D-08 8.05D-05.
     27 vectors produced by pass  4 Test12= 6.94D-16 3.03D-09 XBig12= 6.64D-10 6.13D-06.
     24 vectors produced by pass  5 Test12= 6.94D-16 3.03D-09 XBig12= 3.01D-12 4.18D-07.
      7 vectors produced by pass  6 Test12= 6.94D-16 3.03D-09 XBig12= 2.89D-15 1.09D-08.
 Inverted reduced A of dimension   166 with in-core refinement.
 Isotropic polarizability for W=    0.000000       16.56 Bohr**3.
 End of Minotr Frequency-dependent properties file   721 does not exist.
 End of Minotr Frequency-dependent properties file   722 does not exist.

 **********************************************************************

            Population analysis using the SCF density.

 **********************************************************************

 Orbital symmetries:
 Alpha Orbitals:
       Occupied  (A) (A) (A) (A) (A) (A) (A) (A) (A) (A) (A) (A)
                 (A) (A)
       Virtual   (A) (A) (A) (A) (A) (A) (A) (A)
 Beta  Orbitals:
       Occupied  (A) (A) (A) (A) (A) (A) (A) (A) (A) (A) (A) (A)
                 (A)
       Virtual   (A) (A) (A) (A) (A) (A) (A) (A) (A)
 The electronic state is 2-A.
 Alpha  occ. eigenvalues --  -20.26390 -11.08822 -11.04520  -1.28574  -0.97337
 Alpha  occ. eigenvalues --   -0.81126  -0.64544  -0.59140  -0.55264  -0.52889
 Alpha  occ. eigenvalues --   -0.50696  -0.42997  -0.35701  -0.29867
 Alpha virt. eigenvalues --    0.56153   0.62415   0.65754   0.67743   0.73328
 Alpha virt. eigenvalues --    0.74285   0.77796   0.81302
  Beta  occ. eigenvalues --  -20.26465 -11.06818 -11.04677  -1.28218  -0.95806
  Beta  occ. eigenvalues --   -0.77320  -0.61017  -0.56439  -0.54240  -0.50323
  Beta  occ. eigenvalues --   -0.47872  -0.41531  -0.35747
  Beta virt. eigenvalues --    0.24089   0.57390   0.64404   0.66578   0.69471
  Beta virt. eigenvalues --    0.74326   0.74790   0.79166   0.90301
          Condensed to atoms (all electrons):
              1          2          3          4          5          6
     1  C    4.751831   0.355150  -0.015896   0.383973   0.383301   0.381158
     2  C    0.355150   4.900241   0.265493  -0.020681  -0.018682  -0.020337
     3  O   -0.015896   0.265493   7.814927  -0.000443   0.000493  -0.000548
     4  H    0.383973  -0.020681  -0.000443   0.609815  -0.020433  -0.021948
     5  H    0.383301  -0.018682   0.000493  -0.020433   0.611847  -0.021258
     6  H    0.381158  -0.020337  -0.000548  -0.021948  -0.021258   0.625105
     7  H   -0.026399   0.371441  -0.016273   0.001718  -0.001506  -0.001591
     8  H   -0.014262   0.208490  -0.011868  -0.001705  -0.001350   0.001025
     9  H   -0.002264  -0.040862   0.250817  -0.000009  -0.000021   0.000509
    10  H   -0.000552  -0.045418  -0.000103   0.000087   0.000138  -0.000015
              7          8          9         10
     1  C   -0.026399  -0.014262  -0.002264  -0.000552
     2  C    0.371441   0.208490  -0.040862  -0.045418
     3  O   -0.016273  -0.011868   0.250817  -0.000103
     4  H    0.001718  -0.001705  -0.000009   0.000087
     5  H   -0.001506  -0.001350  -0.000021   0.000138
     6  H   -0.001591   0.001025   0.000509  -0.000015
     7  H    0.644892  -0.015592  -0.002536  -0.000540
     8  H   -0.015592   0.624759   0.002140   0.170044
     9  H   -0.002536   0.002140   0.617871  -0.000021
    10  H   -0.000540   0.170044  -0.000021   0.892982
 Mulliken atomic charges:
              1
     1  C   -0.196039
     2  C    0.045164
     3  O   -0.286599
     4  H    0.069626
     5  H    0.067471
     6  H    0.057899
     7  H    0.046385
     8  H    0.038319
     9  H    0.174376
    10  H   -0.016602
 Sum of Mulliken atomic charges =   0.00000
 Mulliken charges with hydrogens summed into heavy atoms:
              1
     1  C   -0.001044
     2  C    0.113267
     3  O   -0.112223
 Sum of Mulliken charges with hydrogens summed into heavy atoms =   0.00000
          Atomic-Atomic Spin Densities.
              1          2          3          4          5          6
     1  C   -0.057875  -0.013506   0.000653   0.002038   0.001760   0.000678
     2  C   -0.013506   0.772694  -0.021083  -0.001983  -0.001540  -0.003820
     3  O    0.000653  -0.021083  -0.030540   0.000117   0.000013  -0.000087
     4  H    0.002038  -0.001983   0.000117   0.007514   0.000093  -0.001427
     5  H    0.001760  -0.001540   0.000013   0.000093   0.005828  -0.001134
     6  H    0.000678  -0.003820  -0.000087  -0.001427  -0.001134   0.027092
     7  H    0.001796  -0.011045   0.000994   0.000058   0.000204  -0.000452
     8  H    0.002786   0.017634   0.001588   0.000122   0.000019  -0.000097
     9  H   -0.000613  -0.005654  -0.001719  -0.000128  -0.000022   0.000724
    10  H    0.001531  -0.062964   0.001320   0.000339   0.000264  -0.000100
              7          8          9         10
     1  C    0.001796   0.002786  -0.000613   0.001531
     2  C   -0.011045   0.017634  -0.005654  -0.062964
     3  O    0.000994   0.001588  -0.001719   0.001320
     4  H    0.000058   0.000122  -0.000128   0.000339
     5  H    0.000204   0.000019  -0.000022   0.000264
     6  H   -0.000452  -0.000097   0.000724  -0.000100
     7  H   -0.034828   0.003587  -0.000827   0.001830
     8  H    0.003587  -0.261710  -0.000198  -0.015661
     9  H   -0.000827  -0.000198   0.033626  -0.000226
    10  H    0.001830  -0.015661  -0.000226   0.746472
 Mulliken atomic spin densities:
              1
     1  C   -0.060752
     2  C    0.668733
     3  O   -0.048744
     4  H    0.006743
     5  H    0.005485
     6  H    0.021378
     7  H   -0.038684
     8  H   -0.251930
     9  H    0.024964
    10  H    0.672806
 Sum of Mulliken atomic spin densities =   1.00000
 APT atomic charges:
              1
     1  C   -0.108110
     2  C    0.549119
     3  O   -0.344467
     4  H    0.012004
     5  H    0.014672
     6  H   -0.006411
     7  H   -0.089359
     8  H   -0.191090
     9  H    0.093713
    10  H    0.069929
 Sum of APT charges=   0.00000
 APT Atomic charges with hydrogens summed into heavy atoms:
              1
     1  C   -0.087845
     2  C    0.338599
     3  O   -0.250754
     4  H    0.000000
     5  H    0.000000
     6  H    0.000000
     7  H    0.000000
     8  H    0.000000
     9  H    0.000000
    10  H    0.000000
 Sum of APT charges=   0.00000
 Electronic spatial extent (au):  <R**2>=            221.8039
 Charge=              0.0000 electrons
 Dipole moment (field-independent basis, Debye):
    X=              1.0712    Y=             -0.9011    Z=              1.0140  Tot=              1.7285
 Quadrupole moment (field-independent basis, Debye-Ang):
   XX=            -21.3366   YY=            -18.2716   ZZ=            -19.3933
   XY=              1.0419   XZ=             -1.0730   YZ=             -0.4685
 Traceless Quadrupole moment (field-independent basis, Debye-Ang):
   XX=             -1.6694   YY=              1.3955   ZZ=              0.2739
   XY=              1.0419   XZ=             -1.0730   YZ=             -0.4685
 Octapole moment (field-independent basis, Debye-Ang**2):
  XXX=             -3.7538  YYY=             -6.2449  ZZZ=             -0.5779  XYY=             -4.0407
  XXY=             -1.8122  XXZ=              1.2112  XZZ=             -2.0009  YZZ=             -1.0846
  YYZ=              0.6029  XYZ=              0.7403
 Hexadecapole moment (field-independent basis, Debye-Ang**3):
 XXXX=           -148.5097 YYYY=            -78.5593 ZZZZ=            -35.1034 XXXY=              6.0964
 XXXZ=              0.5785 YYYX=              4.9626 YYYZ=             -0.7305 ZZZX=             -0.0590
 ZZZY=              1.2964 XXYY=            -34.9590 XXZZ=            -30.4871 YYZZ=            -19.5161
 XXYZ=             -0.3339 YYXZ=              0.2874 ZZXY=              0.7675
 N-N= 8.563101865944D+01 E-N=-7.900497446942D+02  KE= 2.267187283676D+02
  Exact polarizability:  13.405   1.092  23.411   0.529  -4.001  12.869
 Approx polarizability:  10.049   0.981  16.669   1.056  -2.893  10.618
                          Isotropic Fermi Contact Couplings
        Atom                 a.u.       MegaHertz       Gauss      10(-4) cm-1
     1  C(13)             -0.02308     -25.94397      -9.25745      -8.65398
     2  C(13)              0.26206     294.60208     105.12134      98.26868
     3  O(17)              0.03328     -20.17442      -7.19873      -6.72946
     4  H(1)               0.00287      12.84166       4.58222       4.28352
     5  H(1)               0.00224      10.00673       3.57065       3.33789
     6  H(1)               0.01024      45.78102      16.33581      15.27091
     7  H(1)              -0.01308     -58.48400     -20.86855     -19.50816
     8  H(1)              -0.09938    -444.21034    -158.50529    -148.17262
     9  H(1)               0.01283      57.35380      20.46526      19.13117
    10  H(1)               0.28554    1276.32334     455.42389     425.73564
 --------------------------------------------------------
       Center         ----  Spin Dipole Couplings  ----
                      3XX-RR        3YY-RR        3ZZ-RR
 --------------------------------------------------------
     1   Atom        0.004268      0.000121     -0.004389
     2   Atom       -0.298461      0.415685     -0.117223
     3   Atom       -0.052693      0.039783      0.012911
     4   Atom        0.002605      0.002180     -0.004785
     5   Atom        0.011642     -0.005220     -0.006422
     6   Atom        0.004720      0.000159     -0.004878
     7   Atom       -0.046926     -0.019148      0.066073
     8   Atom       -0.151930      0.224534     -0.072604
     9   Atom        0.004427      0.002434     -0.006862
    10   Atom        0.023863     -0.034893      0.011031
 --------------------------------------------------------
                        XY            XZ            YZ
 --------------------------------------------------------
     1   Atom       -0.006988      0.000066      0.002859
     2   Atom       -0.037856      0.018890     -0.360673
     3   Atom       -0.024088     -0.056051     -0.015898
     4   Atom       -0.006953     -0.008600      0.004423
     5   Atom       -0.006652     -0.000695     -0.003146
     6   Atom       -0.008025     -0.000373      0.002502
     7   Atom       -0.002476     -0.003955      0.009629
     8   Atom       -0.015593      0.007040     -0.173092
     9   Atom        0.012781     -0.000178      0.006062
    10   Atom        0.002631     -0.001283      0.027668
 --------------------------------------------------------


 ---------------------------------------------------------------------------------
              Anisotropic Spin Dipole Couplings in Principal Axis System
 ---------------------------------------------------------------------------------

       Atom             a.u.   MegaHertz   Gauss  10(-4) cm-1        Axes

              Baa    -0.0072    -0.962    -0.343    -0.321 -0.3928 -0.6366  0.6637
     1 C(13)  Bbb    -0.0025    -0.337    -0.120    -0.112  0.4805  0.4733  0.7384
              Bcc     0.0097     1.299     0.464     0.433  0.7841 -0.6089 -0.1200
 
              Baa    -0.3005   -40.322   -14.388   -13.450  0.9886  0.1062  0.1072
     2 C(13)  Bbb    -0.2992   -40.145   -14.325   -13.391 -0.1434  0.4397  0.8866
              Bcc     0.5996    80.467    28.713    26.841 -0.0471  0.8918 -0.4499
 
              Baa    -0.0912     6.597     2.354     2.201  0.8458  0.2149  0.4883
     3 O(17)  Bbb     0.0437    -3.165    -1.129    -1.056 -0.5124  0.5821  0.6314
              Bcc     0.0474    -3.432    -1.225    -1.145  0.1486  0.7842 -0.6024
 
              Baa    -0.0105    -5.577    -1.990    -1.860  0.5554  0.0146  0.8314
     4 H(1)   Bbb    -0.0036    -1.898    -0.677    -0.633  0.4687  0.8204 -0.3275
              Bcc     0.0140     7.475     2.667     2.493  0.6869 -0.5716 -0.4488
 
              Baa    -0.0102    -5.455    -1.947    -1.820  0.2412  0.7256  0.6444
     5 H(1)   Bbb    -0.0037    -1.992    -0.711    -0.664 -0.2266 -0.6036  0.7645
              Bcc     0.0140     7.447     2.657     2.484  0.9437 -0.3304  0.0188
 
              Baa    -0.0073    -3.896    -1.390    -1.300  0.4229  0.6623 -0.6185
     6 H(1)   Bbb    -0.0037    -1.968    -0.702    -0.656  0.4520  0.4374  0.7774
              Bcc     0.0110     5.864     2.092     1.956  0.7854 -0.6083 -0.1144
 
              Baa    -0.0472   -25.201    -8.992    -8.406  0.9965  0.0782  0.0281
     7 H(1)   Bbb    -0.0201   -10.709    -3.821    -3.572 -0.0745  0.9907 -0.1142
              Bcc     0.0673    35.910    12.813    11.978 -0.0368  0.1117  0.9931
 
              Baa    -0.1526   -81.420   -29.053   -27.159  0.9696  0.1340  0.2045
     8 H(1)   Bbb    -0.1521   -81.162   -28.961   -27.073 -0.2416  0.3969  0.8855
              Bcc     0.3047   162.581    58.013    54.231 -0.0374  0.9080 -0.4172
 
              Baa    -0.0131    -6.975    -2.489    -2.327 -0.4644  0.6272 -0.6253
     9 H(1)   Bbb    -0.0039    -2.064    -0.736    -0.688 -0.5388  0.3603  0.7615
              Bcc     0.0169     9.039     3.225     3.015  0.7029  0.6906  0.1706
 
              Baa    -0.0480   -25.614    -9.140    -8.544 -0.0407  0.9044 -0.4247
    10 H(1)   Bbb     0.0240    12.781     4.561     4.263  0.8479  0.2562  0.4642
              Bcc     0.0241    12.832     4.579     4.280 -0.5287  0.3412  0.7772
 

 ---------------------------------------------------------------------------------

 Calling FoFJK, ICntrl=    100127 FMM=F ISym2X=0 I1Cent= 0 IOpClX= 1 NMat=1 NMatS=1 NMatT=0.
 Full mass-weighted force constant matrix:
 Low frequencies ----2800.4527   -1.4574   -0.8808   -0.0014   -0.0008    0.0005
 Low frequencies ---    0.9740  207.0967  248.3089
 ******    1 imaginary frequencies (negative Signs) ****** 
 Harmonic frequencies (cm**-1), IR intensities (KM/Mole), Raman scattering
 activities (A**4/AMU), depolarization ratios for plane and unpolarized
 incident light, reduced masses (AMU), force constants (mDyne/A),
 and normal coordinates:
                     1                      2                      3
                     A                      A                      A
 Frequencies -- -2800.4527               207.0967               248.3089
 Red. masses --     1.0483                 1.0410                 1.0786
 Frc consts  --     4.8440                 0.0263                 0.0392
 IR Inten    --   438.9489                 2.9098                80.2511
 Raman Activ --     2.9506                 0.9242                 5.1884
 Depolar (P) --     0.3187                 0.7487                 0.7452
 Depolar (U) --     0.4833                 0.8563                 0.8540
  Atom  AN      X      Y      Z        X      Y      Z        X      Y      Z
     1   6     0.00   0.00   0.00     0.00   0.01   0.00    -0.02  -0.02   0.01
     2   6     0.00  -0.06   0.02     0.00   0.02  -0.03     0.00   0.03  -0.01
     3   8     0.00   0.00   0.00     0.00  -0.02   0.03    -0.02   0.02   0.05
     4   1     0.00   0.00   0.00     0.25   0.48  -0.04     0.03   0.03   0.01
     5   1     0.00   0.00   0.00     0.02  -0.27   0.48     0.00  -0.08   0.08
     6   1     0.00   0.00   0.00    -0.26  -0.22  -0.42    -0.09  -0.04  -0.02
     7   1    -0.01   0.08  -0.01     0.01   0.08  -0.04     0.02   0.08  -0.01
     8   1    -0.04   0.82  -0.39    -0.01  -0.01  -0.10     0.00   0.00  -0.07
     9   1     0.00   0.00   0.00    -0.06   0.06   0.20     0.54  -0.34  -0.72
    10   1     0.02  -0.37   0.17    -0.03  -0.06  -0.19     0.00  -0.05  -0.17
                     4                      5                      6
                     A                      A                      A
 Frequencies --   393.3511               435.9602               478.7656
 Red. masses --     1.1525                 1.7940                 1.9665
 Frc consts  --     0.1051                 0.2009                 0.2656
 IR Inten    --     0.1404                 2.9753                 6.0683
 Raman Activ --    11.9833                 5.0825                 6.3948
 Depolar (P) --     0.7469                 0.7480                 0.7100
 Depolar (U) --     0.8551                 0.8559                 0.8304
  Atom  AN      X      Y      Z        X      Y      Z        X      Y      Z
     1   6    -0.01  -0.07   0.01     0.12   0.03   0.01    -0.12   0.01  -0.03
     2   6     0.04   0.04   0.00     0.03  -0.14   0.04    -0.01   0.03   0.20
     3   8     0.05   0.03  -0.02    -0.11   0.11   0.00     0.13   0.00  -0.07
     4   1    -0.01  -0.13   0.02     0.19   0.10   0.00    -0.45   0.10  -0.06
     5   1     0.07  -0.16   0.00    -0.03   0.22   0.05     0.03  -0.09  -0.22
     6   1    -0.13  -0.06   0.06     0.35   0.05  -0.02    -0.09  -0.04  -0.17
     7   1     0.04   0.02   0.00     0.05  -0.19   0.05    -0.08  -0.06   0.21
     8   1    -0.22   0.05   0.02    -0.04  -0.22  -0.04     0.01  -0.06   0.03
     9   1     0.02   0.05   0.01    -0.27   0.03  -0.15     0.00   0.03   0.00
    10   1    -0.92   0.04   0.10    -0.32  -0.42  -0.50     0.05  -0.37  -0.64
                     7                      8                      9
                     A                      A                      A
 Frequencies --  1027.2348              1061.9165              1243.2384
 Red. masses --     1.1007                 2.0700                 1.4715
 Frc consts  --     0.6843                 1.3753                 1.3401
 IR Inten    --     0.7445                 1.1954                11.3006
 Raman Activ --     6.9768                 7.8936                 6.8267
 Depolar (P) --     0.6329                 0.3002                 0.6319
 Depolar (U) --     0.7752                 0.4618                 0.7744
  Atom  AN      X      Y      Z        X      Y      Z        X      Y      Z
     1   6     0.05  -0.04   0.04     0.20   0.00  -0.02    -0.01   0.15   0.03
     2   6    -0.01   0.00   0.04    -0.04   0.14   0.08     0.09  -0.10  -0.03
     3   8    -0.02  -0.01  -0.02    -0.13  -0.07  -0.04    -0.02   0.00   0.00
     4   1    -0.33   0.23  -0.01    -0.01  -0.18  -0.02    -0.28  -0.10   0.05
     5   1     0.12   0.00  -0.19     0.59  -0.41  -0.21     0.35  -0.28  -0.08
     6   1     0.32  -0.15  -0.27    -0.17  -0.05  -0.02    -0.59   0.12   0.10
     7   1    -0.24   0.59  -0.08    -0.17  -0.21   0.14     0.15   0.15  -0.08
     8   1     0.09  -0.18  -0.25    -0.13   0.28   0.20    -0.04  -0.25  -0.13
     9   1    -0.07  -0.03  -0.06     0.03  -0.03   0.04    -0.27  -0.08  -0.14
    10   1    -0.07   0.09   0.21     0.07   0.07  -0.22     0.04  -0.14   0.16
                    10                     11                     12
                     A                      A                      A
 Frequencies --  1299.4649              1352.3935              1484.3868
 Red. masses --     1.4878                 2.1652                 1.0782
 Frc consts  --     1.4802                 2.3332                 1.3997
 IR Inten    --    18.3844                12.5788                 8.9623
 Raman Activ --     5.9123                 5.4579                 6.9725
 Depolar (P) --     0.6445                 0.6010                 0.6031
 Depolar (U) --     0.7839                 0.7508                 0.7524
  Atom  AN      X      Y      Z        X      Y      Z        X      Y      Z
     1   6    -0.04   0.02   0.12    -0.06  -0.01  -0.02     0.00  -0.03   0.06
     2   6     0.11   0.00  -0.11     0.17   0.09   0.12     0.01   0.02  -0.03
     3   8    -0.05  -0.01   0.00    -0.13  -0.10  -0.09     0.02  -0.01   0.00
     4   1    -0.51   0.27   0.07     0.14   0.03  -0.01    -0.19   0.14   0.04
     5   1     0.04   0.05  -0.16    -0.24   0.14   0.14     0.00   0.04  -0.07
     6   1     0.10  -0.09  -0.16     0.06   0.06   0.09     0.16  -0.09  -0.10
     7   1    -0.09  -0.49  -0.04     0.70   0.31   0.10     0.46  -0.08   0.01
     8   1     0.33   0.20   0.14     0.38   0.08   0.02    -0.65   0.13  -0.02
     9   1     0.26   0.06   0.16    -0.07  -0.09  -0.02    -0.30  -0.09  -0.16
    10   1    -0.12   0.02  -0.12    -0.12   0.05  -0.02     0.18   0.23  -0.12
                    13                     14                     15
                     A                      A                      A
 Frequencies --  1601.6924              1623.8325              1649.9775
 Red. masses --     1.0589                 1.0760                 1.4375
 Frc consts  --     1.6006                 1.6716                 2.3058
 IR Inten    --     7.7784                 1.2626                28.8002
 Raman Activ --    14.8478                 4.3277                 3.0973
 Depolar (P) --     0.2981                 0.6625                 0.5984
 Depolar (U) --     0.4593                 0.7970                 0.7487
  Atom  AN      X      Y      Z        X      Y      Z        X      Y      Z
     1   6     0.00   0.00  -0.01     0.00   0.01   0.01     0.00  -0.03  -0.05
     2   6    -0.01   0.00   0.02    -0.05   0.02   0.04     0.17   0.02   0.05
     3   8     0.03  -0.02   0.04    -0.01   0.02  -0.03    -0.04  -0.01  -0.01
     4   1     0.03  -0.01  -0.01     0.02  -0.01   0.02    -0.06   0.09  -0.06
     5   1    -0.01   0.00   0.02     0.08  -0.06  -0.04    -0.23   0.15   0.16
     6   1    -0.03   0.02   0.03     0.05  -0.01  -0.03    -0.13   0.07   0.19
     7   1    -0.15  -0.26   0.07     0.30  -0.37   0.13    -0.62  -0.12   0.04
     8   1     0.39   0.11  -0.37    -0.02  -0.31  -0.67    -0.51  -0.10  -0.27
     9   1    -0.47  -0.16  -0.25     0.33   0.11   0.17     0.08   0.01   0.05
    10   1    -0.12   0.49  -0.15     0.01   0.01   0.20     0.13   0.13   0.02
                    16                     17                     18
                     A                      A                      A
 Frequencies --  1727.2000              1776.4631              1824.2258
 Red. masses --     1.3457                 1.3207                 1.0578
 Frc consts  --     2.3652                 2.4556                 2.0740
 IR Inten    --     3.5415                 6.8033                 1.0824
 Raman Activ --     3.9673                19.4283                16.1014
 Depolar (P) --     0.6921                 0.4700                 0.7411
 Depolar (U) --     0.8180                 0.6394                 0.8513
  Atom  AN      X      Y      Z        X      Y      Z        X      Y      Z
     1   6     0.15  -0.05  -0.03     0.01  -0.05   0.01     0.01  -0.01   0.05
     2   6    -0.07  -0.01   0.00     0.00   0.15  -0.04     0.01  -0.03   0.02
     3   8     0.01   0.01   0.00     0.01  -0.02   0.02    -0.01   0.00  -0.01
     4   1    -0.56   0.13  -0.09     0.11   0.29  -0.02     0.37  -0.02   0.07
     5   1    -0.30   0.38   0.27    -0.03   0.13  -0.22    -0.08   0.42  -0.53
     6   1    -0.48  -0.02   0.19    -0.07  -0.01   0.11    -0.46  -0.22  -0.31
     7   1     0.20   0.03   0.01    -0.06  -0.22   0.02    -0.02   0.05   0.01
     8   1     0.12   0.01   0.01     0.07  -0.19  -0.01    -0.02   0.02  -0.02
     9   1     0.06   0.02   0.03    -0.38  -0.14  -0.20     0.08   0.03   0.04
    10   1    -0.03   0.01  -0.01     0.02  -0.63   0.32     0.00   0.12  -0.06
                    19                     20                     21
                     A                      A                      A
 Frequencies --  1833.0177              3562.3309              3593.8683
 Red. masses --     1.0782                 1.0391                 1.0884
 Frc consts  --     2.1343                 7.7691                 8.2827
 IR Inten    --     0.7310                 1.0144                13.4133
 Raman Activ --    14.7747                42.2653                41.0559
 Depolar (P) --     0.7338                 0.0259                 0.3511
 Depolar (U) --     0.8465                 0.0505                 0.5198
  Atom  AN      X      Y      Z        X      Y      Z        X      Y      Z
     1   6    -0.02  -0.05  -0.01     0.04  -0.03  -0.01     0.00   0.00   0.00
     2   6    -0.02  -0.06   0.01     0.00   0.00   0.00     0.01  -0.02  -0.08
     3   8     0.00   0.01  -0.01     0.00   0.00   0.00     0.00   0.00   0.00
     4   1     0.16   0.66  -0.07    -0.03   0.05   0.54     0.00   0.00  -0.05
     5   1     0.17  -0.14  -0.30    -0.41  -0.32  -0.17     0.01   0.00   0.00
     6   1    -0.06   0.20   0.53    -0.06   0.57  -0.27     0.00  -0.01   0.01
     7   1     0.07   0.08  -0.01     0.00   0.01   0.04    -0.04   0.17   0.98
     8   1     0.02   0.05   0.02     0.00   0.00   0.00     0.00   0.00   0.00
     9   1     0.11   0.04   0.06     0.00   0.00   0.00     0.00   0.01   0.00
    10   1    -0.01   0.17  -0.09     0.00   0.00   0.00     0.00  -0.01   0.00
                    22                     23                     24
                     A                      A                      A
 Frequencies --  3738.0317              3757.6332              4195.2257
 Red. masses --     1.1079                 1.1093                 1.0675
 Frc consts  --     9.1205                 9.2282                11.0691
 IR Inten    --     0.6890                 0.2479                21.7896
 Raman Activ --    33.1447                26.1023                69.0647
 Depolar (P) --     0.7500                 0.7477                 0.3084
 Depolar (U) --     0.8571                 0.8556                 0.4714
  Atom  AN      X      Y      Z        X      Y      Z        X      Y      Z
     1   6    -0.03  -0.08   0.05    -0.04  -0.04  -0.08     0.00   0.00   0.00
     2   6     0.00   0.00   0.00     0.00   0.00   0.00     0.00   0.00   0.00
     3   8     0.00   0.00   0.00     0.00   0.00   0.00     0.00  -0.06   0.03
     4   1     0.02  -0.05  -0.43    -0.03   0.07   0.71     0.00   0.00   0.00
     5   1     0.35   0.26   0.14     0.53   0.40   0.21     0.00   0.00   0.00
     6   1    -0.08   0.69  -0.32     0.00  -0.01   0.00     0.00   0.00   0.00
     7   1     0.00   0.00  -0.02     0.00   0.01   0.03     0.00   0.00  -0.01
     8   1     0.00   0.00   0.00     0.00   0.00   0.00     0.00   0.00   0.00
     9   1     0.00   0.00   0.00     0.00   0.00   0.00    -0.02   0.90  -0.43
    10   1     0.00   0.00   0.00     0.00   0.00   0.00     0.00   0.00   0.00

 -------------------
 - Thermochemistry -
 -------------------
 Temperature   298.150 Kelvin.  Pressure   1.00000 Atm.
 Atom     1 has atomic number  6 and mass  12.00000
 Atom     2 has atomic number  6 and mass  12.00000
 Atom     3 has atomic number  8 and mass  15.99491
 Atom     4 has atomic number  1 and mass   1.00783
 Atom     5 has atomic number  1 and mass   1.00783
 Atom     6 has atomic number  1 and mass   1.00783
 Atom     7 has atomic number  1 and mass   1.00783
 Atom     8 has atomic number  1 and mass   1.00783
 Atom     9 has atomic number  1 and mass   1.00783
 Atom    10 has atomic number  1 and mass   1.00783
 Molecular mass:    47.04969 amu.
 Principal axes and moments of inertia in atomic units:
                           1         2         3
     Eigenvalues --    76.57061 209.82391 245.91241
           X            0.99965  -0.01984  -0.01722
           Y            0.01754   0.99199  -0.12508
           Z            0.01957   0.12473   0.99200
 This molecule is an asymmetric top.
 Rotational symmetry number  1.
 Rotational temperatures (Kelvin)      1.13116     0.41279     0.35221
 Rotational constants (GHZ):          23.56963     8.60122     7.33896
    1 imaginary frequencies ignored.
 Zero-point vibrational energy     239944.7 (Joules/Mol)
                                   57.34815 (Kcal/Mol)
 Warning -- explicit consideration of   5 degrees of freedom as
           vibrations may cause significant error
 Vibrational temperatures:    297.97   357.26   565.94   627.25   688.84
          (Kelvin)           1477.96  1527.86  1788.74  1869.64  1945.79
                             2135.70  2304.48  2336.33  2373.95  2485.05
                             2555.93  2624.65  2637.30  5125.39  5170.77
                             5378.19  5406.39  6035.99
 
 Zero-point correction=                           0.091390 (Hartree/Particle)
 Thermal correction to Energy=                    0.096210
 Thermal correction to Enthalpy=                  0.097154
 Thermal correction to Gibbs Free Energy=         0.064663
 Sum of electronic and zero-point Energies=           -152.476544
 Sum of electronic and thermal Energies=              -152.471725
 Sum of electronic and thermal Enthalpies=            -152.470781
 Sum of electronic and thermal Free Energies=         -152.503271
 
                     E (Thermal)             CV                S
                      KCal/Mol        Cal/Mol-Kelvin    Cal/Mol-Kelvin
 Total                   60.372             15.174             68.383
 Electronic               0.000              0.000              1.377
 Translational            0.889              2.981             37.471
 Rotational               0.889              2.981             22.895
 Vibrational             58.595              9.212              6.640
 Vibration     1          0.641              1.830              2.069
 Vibration     2          0.662              1.766              1.743
 Vibration     3          0.761              1.484              0.987
 Vibration     4          0.796              1.392              0.839
 Vibration     5          0.835              1.297              0.713
                       Q            Log10(Q)             Ln(Q)
 Total Bot       0.180779D-29        -29.742852        -68.485448
 Total V=0       0.196601D+13         12.293585         28.307025
 Vib (Bot)       0.316688D-41        -41.499368        -95.555826
 Vib (Bot)    1  0.960160D+00         -0.017657         -0.040656
 Vib (Bot)    2  0.786632D+00         -0.104229         -0.239995
 Vib (Bot)    3  0.455317D+00         -0.341686         -0.786761
 Vib (Bot)    4  0.397802D+00         -0.400334         -0.921802
 Vib (Bot)    5  0.349698D+00         -0.456306         -1.050684
 Vib (V=0)       0.344405D+01          0.537069          1.236648
 Vib (V=0)    1  0.158255D+01          0.199356          0.459035
 Vib (V=0)    2  0.143209D+01          0.155970          0.359134
 Vib (V=0)    3  0.117625D+01          0.070500          0.162331
 Vib (V=0)    4  0.113894D+01          0.056501          0.130099
 Vib (V=0)    5  0.111015D+01          0.045384          0.104500
 Electronic      0.200000D+01          0.301030          0.693147
 Translational   0.126850D+08          7.103290         16.355930
 Rotational      0.225007D+05          4.352195         10.021300
 ***** Axes restored to original set *****
 -------------------------------------------------------------------
 Center     Atomic                   Forces (Hartrees/Bohr)
 Number     Number              X              Y              Z
 -------------------------------------------------------------------
      1        6           0.000001386   -0.000001674   -0.000000039
      2        6          -0.000001064   -0.000000384    0.000001710
      3        8          -0.000000188   -0.000002250    0.000001507
      4        1           0.000000861    0.000000152    0.000000183
      5        1           0.000000938   -0.000000240   -0.000000795
      6        1          -0.000000158    0.000000676   -0.000000519
      7        1          -0.000000974    0.000000628   -0.000001106
      8        1          -0.000000181    0.000004084   -0.000000757
      9        1          -0.000000828    0.000000722   -0.000000946
     10        1           0.000000206   -0.000001714    0.000000763
 -------------------------------------------------------------------
 Cartesian Forces:  Max     0.000004084 RMS     0.000001224

 GradGradGradGradGradGradGradGradGradGradGradGradGradGradGradGradGradGrad
 Berny optimization.
 Search for a local minimum.
 Step number   1 out of a maximum of    2
 All quantities printed in internal units (Hartrees-Bohrs-Radians)
 Second derivative matrix not updated -- analytic derivatives used.
 ITU=  0
     Eigenvalues ---   -0.36367   0.00174   0.00316   0.00815   0.01384
     Eigenvalues ---    0.02855   0.04589   0.07556   0.08242   0.09848
     Eigenvalues ---    0.10031   0.11411   0.14197   0.16362   0.19419
     Eigenvalues ---    0.21009   0.35382   0.47690   0.72850   1.00124
     Eigenvalues ---    1.07494   1.12365   1.18217   1.28238
 Eigenvalue     1 is  -3.64D-01 should be greater than     0.000000 Eigenvector:
                          Y8        Y10       Z8        Y2        Z10
   1                    0.77130  -0.38481  -0.37194  -0.26480   0.15176
                          Z2        Y7        X9        Y3        X8
   1                    0.11505   0.06801  -0.04281   0.03178  -0.03141
 Angle between quadratic step and forces=  66.00 degrees.
 Linear search not attempted -- first point.
 TrRot=  0.000000 -0.000002  0.000002  0.000000  0.000001  0.000000
 Variable       Old X    -DE/DX   Delta X   Delta X   Delta X     New X
                                 (Linear)    (Quad)   (Total)
    X1        2.48005   0.00000   0.00000   0.00000   0.00000   2.48006
    Y1       -0.44975   0.00000   0.00000   0.00000   0.00000  -0.44975
    Z1       -0.17802   0.00000   0.00000   0.00000   0.00000  -0.17802
    X2       -0.05199   0.00000   0.00000   0.00000   0.00000  -0.05199
    Y2        0.76026   0.00000   0.00000   0.00000   0.00000   0.76026
    Z2        0.59443   0.00000   0.00000   0.00000   0.00000   0.59443
    X3       -2.23991   0.00000   0.00000   0.00000   0.00000  -2.23992
    Y3       -0.49957   0.00000   0.00000  -0.00001  -0.00001  -0.49958
    Z3       -0.33829   0.00000   0.00000   0.00001   0.00001  -0.33828
    X4        2.58433   0.00000   0.00000   0.00002   0.00002   2.58434
    Y4       -0.65789   0.00000   0.00000   0.00001   0.00001  -0.65787
    Z4       -2.21665   0.00000   0.00000   0.00000   0.00000  -2.21665
    X5        4.04157   0.00000   0.00000   0.00001   0.00001   4.04158
    Y5        0.72657   0.00000   0.00000  -0.00002  -0.00002   0.72655
    Z5        0.44367   0.00000   0.00000   0.00001   0.00001   0.44368
    X6        2.69278   0.00000   0.00000  -0.00002  -0.00002   2.69276
    Y6       -2.30792   0.00000   0.00000  -0.00001  -0.00001  -2.30793
    Z6        0.67449   0.00000   0.00000  -0.00002  -0.00002   0.67448
    X7       -0.13902   0.00000   0.00000  -0.00001  -0.00001  -0.13903
    Y7        1.11588   0.00000   0.00000   0.00002   0.00002   1.11590
    Z7        2.63513   0.00000   0.00000  -0.00001  -0.00001   2.63513
    X8       -0.14194   0.00000   0.00000  -0.00001  -0.00001  -0.14195
    Y8        2.95462   0.00000   0.00000   0.00002   0.00002   2.95463
    Z8       -0.41632   0.00000   0.00000  -0.00001   0.00000  -0.41632
    X9       -2.18278   0.00000   0.00000   0.00001   0.00001  -2.18277
    Y9       -2.18956   0.00000   0.00000  -0.00001  -0.00001  -2.18957
    Z9        0.47289   0.00000   0.00000   0.00000   0.00001   0.47289
   X10       -0.21641   0.00000   0.00000   0.00000   0.00000  -0.21641
   Y10        4.58965   0.00000   0.00000   0.00001   0.00000   4.58966
   Z10       -1.18248   0.00000   0.00000   0.00000   0.00000  -1.18248
         Item               Value     Threshold  Converged?
 Maximum Force            0.000004     0.000450     YES
 RMS     Force            0.000001     0.000300     YES
 Maximum Displacement     0.000021     0.001800     YES
 RMS     Displacement     0.000011     0.001200     YES
 Predicted change in Energy=-1.363812D-10
 Optimization completed.
    -- Stationary point found.
 GradGradGradGradGradGradGradGradGradGradGradGradGradGradGradGradGradGrad

 1\1\GINC-AF2CIQUS\Freq\UHF\STO-3G\C2H7O1(2)\RAMOS\04-Feb-2019\0\\#n hf
 /sto-3g scf=verytight freq units=au\\--\\0,2\C,1.3123880529,-0.2379990
 371,-0.0942057142\C,-0.0275113939,0.402313323,0.3145609248\O,-1.185311
 9672,-0.2643610581,-0.1790142995\H,1.3675674771,-0.3481382771,-1.17300
 11886\H,2.1387072601,0.3844837553,0.2347800521\H,1.4249562162,-1.22129
 70757,0.3569268521\H,-0.0735667447,0.590496676,1.3944528544\H,-0.07511
 40589,1.5635165057,-0.2203059971\H,-1.155076369,-1.1586631321,0.250241
 0226\H,-0.1145213564,2.4287387046,-0.6257414656\\Version=AM64L-G09RevB
 .01\State=2-A\HF=-152.5679344\S2=0.787484\S2-1=0.\S2A=0.750322\RMSD=7.
 799e-09\RMSF=1.224e-06\ZeroPoint=0.0913901\Thermal=0.0962097\Dipole=0.
 4214616,-0.3545043,0.3989471\DipoleDeriv=-0.0843594,-0.0998373,-0.0088
 438,0.0124636,-0.1435654,-0.005108,-0.0256155,0.0290642,-0.0964046,0.5
 00862,0.1133836,-0.0765684,0.0389552,0.7979932,-0.1021476,-0.0502657,-
 0.0673176,0.3485024,-0.470941,-0.0774602,0.1152135,-0.0951496,-0.22767
 91,-0.1954346,0.1259096,-0.1838226,-0.3347804,0.0163899,0.0251893,0.02
 28283,0.0187139,0.0375073,-0.0182244,0.0044767,-0.0078053,-0.0178859,-
 0.0243012,-0.0313382,-0.0160153,-0.0003538,0.0274109,-0.0131351,0.0004
 011,-0.0144972,0.040906,-0.0071058,0.0463557,0.0023968,0.0205921,-0.03
 83813,0.0298232,0.0204783,0.0082777,0.0262546,-0.0982141,-0.0051744,0.
 040514,-0.0077999,-0.0893152,0.0455416,0.0033908,-0.0480732,-0.0805489
 ,-0.0099215,0.0288422,-0.013655,0.0233053,-0.4951962,0.1890365,-0.0139
 043,0.230818,-0.0681535,0.1947937,0.016278,-0.0735401,-0.0038608,-0.07
 27699,0.1551986,-0.0702084,0.1622625,0.1591159,-0.0172028,-0.0162387,0
 .0076701,-0.0068658,0.2039957,-0.0855503,0.0053373,-0.1089066,0.022994
 5\Polar=13.4052411,1.0918487,23.4111168,0.5290473,-4.0012515,12.868806
 3\PolarDeriv=0.8806958,-1.7102357,-1.0595186,-1.2798096,0.1164918,-0.3
 149314,-1.9872826,-1.1277846,3.0344368,0.3304153,-1.546999,0.5098004,-
 1.258493,0.2668725,-1.7681707,-0.6096707,0.9551601,2.2982838,-0.000512
 1,1.7814414,0.6339702,1.1374688,0.0321018,0.2603578,2.1751525,0.386971
 4,-4.1837411,-0.1733405,2.2064077,-0.7541752,1.4901962,0.2573751,1.846
 6265,0.3821319,-1.1474361,-2.5315217,-5.2660301,-0.6536295,0.2452169,-
 1.8332475,-0.1888725,-0.036756,-0.1832221,-0.3802749,4.3215561,-0.5455
 062,-2.1683936,0.2334535,-1.1389097,-1.0479703,-1.7493526,-1.8877542,0
 .51812,-1.8802432,0.5854805,-0.0505572,0.2144158,-2.0859093,0.1349366,
 0.1949805,0.335249,0.5402372,-1.2091256,0.1449005,-1.843005,-0.2774064
 ,-0.1413643,0.1634783,-0.0798621,0.8647817,-0.8548466,-5.3104694,4.830
 4102,1.6154505,0.1150586,1.0747284,-0.0427934,0.1662981,0.7804586,1.95
 58419,1.8083709,0.0407706,0.8878095,0.0378594,0.4417006,-0.0039379,0.3
 786055,1.9351409,0.9364437,0.8526123,0.963951,-1.9053858,0.4820635,1.1
 559855,-0.1118064,0.0654021,-0.113753,1.3373824,-5.5914307,-0.2004503,
 1.3102562,-0.2526308,0.452233,-0.2303996,0.6807165,0.6300417,-2.277224
 2,1.3325939,-0.3314147,0.1836684,-0.3285184,2.4145708,0.0688744,-0.298
 6686,-0.2922747,-0.1893384,1.5466333,-0.0015543,1.7461507,0.4940732,0.
 0829055,-0.0604029,-0.0215604,-0.3415185,0.8976204,6.1830993,-0.100705
 6,0.1043183,-0.0798962,-0.207002,-0.0028758,-0.0424185,0.182062,-0.168
 4015,2.8476924,0.1194543,-1.1287844,0.3887011,-0.3955629,0.0255607,-1.
 1191453,-0.1284818,0.8372368,-0.1376212,-1.1456585,-2.0955476,-0.19249
 59,0.7107414,0.0188632,-0.0167943,-0.8082099,-2.1285494,-7.3236626,0.3
 018088,1.2277437,-0.196489,0.3828415,0.661262,1.4562835,-0.6684097,-2.
 3103996,1.2839877,-0.4162165,2.7304773,-0.0302958,-1.0875265,-0.024919
 6,0.0225303,-0.0881798,-0.226084,4.7492706,-0.0164982,-0.6911857,-0.18
 31862,0.084453,-0.0318378,0.375859,-0.1762614,2.4453255,-2.0907217\Hyp
 erPolar=9.4743064,8.5916243,-0.4607999,22.1084153,1.5784092,3.0150172,
 -5.0641404,1.2879268,4.6648168,-0.1665101\PG=C01 [X(C2H7O1)]\NImag=1\\
 0.74313218,0.05753615,0.81534216,0.03767418,-0.00328332,0.84623745,-0.
 24834956,0.08274926,0.04063513,0.69157101,0.06966000,-0.13770980,-0.03
 220913,0.04390897,0.41527605,0.05418980,-0.03787063,-0.13286436,0.0152
 5138,0.15191007,0.72404404,-0.04487592,-0.02740109,-0.01592487,-0.2868
 8330,-0.07602273,-0.12152844,0.38593998,0.00730203,0.01140872,0.005614
 26,-0.16480476,-0.16010606,-0.07489725,0.13948927,0.68091310,0.0000267
 3,0.00350333,0.00907343,-0.07731979,-0.01162345,-0.12281601,0.16423048
 ,-0.18784365,0.25495252,-0.07654966,-0.00138643,0.01806040,0.00148671,
 0.00467029,0.04258899,0.00385678,-0.00100124,-0.00160776,0.07131863,-0
 .00037097,-0.08291146,-0.03745071,-0.00108583,-0.00250562,-0.02029531,
 -0.00101438,0.00036994,0.00097221,-0.00367209,0.07458700,0.01493956,-0
 .03560771,-0.46052954,-0.00072677,-0.00068732,-0.00379603,-0.00128619,
 0.00041664,0.00069978,-0.01917221,0.04029190,0.47698978,-0.29654753,-0
 .17336478,-0.09055712,-0.02296137,-0.02298073,-0.01394197,-0.00547849,
 0.00309080,0.00195336,0.00593898,0.00530719,0.00557532,0.30714869,-0.1
 6971099,-0.20571787,-0.06715093,0.01705611,0.01414355,0.00785899,0.005
 38245,-0.00104631,-0.00068177,0.00038010,-0.00004864,0.00388714,0.1795
 0760,0.20710603,-0.08958403,-0.06711112,-0.11482234,0.01029332,0.00908
 513,0.00427968,0.00287410,-0.00098289,0.00051130,-0.03619417,-0.026732
 35,-0.00483058,0.09504251,0.07297406,0.10694767,-0.07868131,0.03537337
 ,-0.01949203,-0.00473502,0.03628360,-0.01617339,0.00323508,-0.00071589
 ,0.00066928,-0.00001876,-0.00236212,0.00066491,0.00781320,-0.03173393,
 0.01857422,0.07501538,0.02846272,-0.38571226,0.14416091,0.00145669,-0.
 01256341,0.00555973,-0.00119373,0.00106519,-0.00031044,-0.00114664,0.0
 1007486,-0.00862633,0.00870870,-0.01517882,0.01266022,-0.03703388,0.40
 005323,-0.01546026,0.14084305,-0.14560611,0.00168227,-0.01397950,0.006
 52557,-0.00054210,0.00027023,-0.00033792,-0.00404786,0.04366709,-0.009
 79930,0.00190681,-0.01691580,0.00752445,0.01542901,-0.15279939,0.14020
 265,0.00115809,0.00464353,0.03976795,-0.07397073,0.00028251,0.02121208
 ,-0.00816952,-0.01200983,-0.04207212,-0.00684537,0.00389714,0.00020490
 ,0.00244149,-0.00066027,-0.00072505,0.00144534,-0.00082078,-0.00076184
 ,0.08086027,0.00348497,0.00055196,-0.02088729,0.00400326,-0.06216078,-
 0.05291320,-0.00992454,-0.00296221,-0.02628105,0.00328669,-0.00048156,
 -0.00001897,-0.00021479,0.00012677,0.00049218,-0.00187483,0.00133455,0
 .00031245,0.00060195,0.06742796,-0.00310763,0.00290695,-0.00327694,0.0
 2500772,-0.06794561,-0.42528045,-0.00875034,-0.00415994,-0.00932355,0.
 00047183,-0.00035974,0.00099099,0.00007909,0.00014833,0.00044620,-0.00
 051545,0.00003479,0.00072585,-0.01524591,0.07050976,0.44175492,-0.0022
 0403,0.02274305,-0.01055503,-0.05064987,-0.00381802,0.00197850,0.00025
 232,-0.02298524,0.00993134,0.00100147,-0.00064572,-0.00028812,0.001110
 73,-0.00020705,-0.00018269,-0.00376312,0.00133326,0.00192376,0.0011745
 9,-0.00089033,0.00102221,0.07816213,0.00366587,-0.02730921,0.01452322,
 -0.00302814,0.13976108,-0.07651414,-0.00831869,-0.03562721,0.01071128,
 -0.00149586,0.00098954,0.00082319,-0.00113854,0.00069471,0.00010061,0.
 00403152,0.00053020,-0.00238414,0.00336348,-0.01500654,0.00132455,0.01
 297461,-0.17135211,0.00026671,0.00021575,-0.00020328,0.00204412,-0.085
 84385,-0.02475440,0.00335245,0.00015641,0.00391680,-0.00000607,-0.0004
 5110,0.00029968,0.00007525,0.00019501,0.00001164,0.00029639,-0.0007892
 7,0.00094812,-0.00298676,0.03375931,-0.00985374,-0.00407939,0.11425601
 ,0.02225164,0.00252053,-0.00019696,0.00033747,-0.01425062,-0.06007927,
 0.01946783,-0.04796618,0.05122145,-0.05566799,-0.00022100,0.00005247,0
 .00009010,0.00041688,0.00013989,-0.00016098,-0.00050924,0.00045555,-0.
 00010216,0.00201357,0.00203608,0.00099424,-0.00404372,-0.00405332,-0.0
 0152067,0.06188573,0.00231371,0.00351329,0.00031404,0.01248360,-0.0259
 7679,0.01901464,-0.02327935,-0.50413734,0.21440583,0.00008816,-0.00005
 198,-0.00014332,0.00072336,-0.00015527,-0.00036760,-0.00090314,0.00041
 429,0.00033416,0.00194235,0.00241209,0.00031184,-0.00327299,0.00015517
 ,-0.00217420,0.00953252,0.52378782,0.00032810,0.00030298,0.00014517,-0
 .01396258,-0.03133035,0.00214161,-0.02150797,0.26550200,-0.13787062,0.
 00013328,0.00017993,-0.00018447,0.00001572,-0.00025151,-0.00010274,0.0
 0007272,0.00002382,0.00020041,0.00011998,-0.00046389,0.00178334,-0.001
 98365,-0.00265309,0.00083053,0.03675782,-0.23187913,0.13343502,0.00039
 720,-0.00069609,0.00005393,0.00874274,0.00809537,-0.00304479,0.0000892
 5,0.00041342,-0.00014353,0.00003222,-0.00010569,-0.00000151,0.00011742
 ,-0.00015389,0.00006279,0.00019844,-0.00022188,-0.00002764,-0.00010774
 ,-0.00050848,0.00004422,-0.02104051,-0.00600094,0.00255795,0.00015405,
 0.00037177,0.00002659,0.01141692,-0.00234352,0.00854447,-0.00363105,0.
 00726084,-0.16815824,0.07814709,0.00228279,0.01012217,-0.00285228,0.00
 027701,-0.00002209,-0.00033522,0.00036119,0.00007585,-0.00011823,-0.00
 106469,-0.00001782,0.00065184,-0.00124007,0.00875776,-0.00277094,-0.00
 523156,0.10716435,-0.05932408,0.00089160,0.00003871,0.00056924,-0.0011
 9358,0.03349485,0.00072685,-0.00389928,0.00184652,-0.00290481,0.082624
 01,-0.02747964,-0.00091712,-0.00407582,0.00119426,-0.00022644,0.000178
 08,0.00015969,-0.00014896,-0.00006352,0.00003472,0.00047432,0.00008596
 ,-0.00038372,0.00048677,-0.00450931,0.00203338,0.00223307,-0.06018749,
 0.00655301,-0.00019566,0.00018373,-0.00037828,0.00047198,-0.01033636,0
 .01642006\\-0.00000139,0.00000167,0.00000004,0.00000106,0.00000038,-0.
 00000171,0.00000019,0.00000225,-0.00000151,-0.00000086,-0.00000015,-0.
 00000018,-0.00000094,0.00000024,0.00000080,0.00000016,-0.00000068,0.00
 000052,0.00000097,-0.00000063,0.00000111,0.00000018,-0.00000408,0.0000
 0076,0.00000083,-0.00000072,0.00000095,-0.00000021,0.00000171,-0.00000
 076\\\@


      HUMANKIND PERIODICALLY GOES THROUGH A SPEEDUP OF ITS AFFAIRS, 
      THEREBY EXPERIENCING THE RACE BETWEEN THE RENEWABLE VITALITY
      OF THE LIVING, AND THE BECKONING VITIATION OF DECADENCE.
      IN THIS PERIODIC RACE, ANY PAUSE BECOMES A LUXURY.
      ONLY THEN CAN ONE REFLECT THAT ALL IS PERMITTED;
      ALL IS POSSIBLE.

                              -- THE APOCRYPHA OF MUAD'DIB
                                 CHILDREN OF DUNE, BY FRANK HERBERT
 Job cpu time:  0 days  0 hours  0 minutes  2.1 seconds.
 File lengths (MBytes):  RWF=      5 Int=      0 D2E=      0 Chk=      1 Scr=      1
 Normal termination of Gaussian 09 at Mon Feb  4 16:48:05 2019.
