 Entering Gaussian System, Link 0=/home/programs/G09_64/g09/g09
 Initial command:
 /home/programs/G09_64/g09/l1.exe /scratch/Gau-25229.inp -scrdir=/scratch/
 Entering Link 1 = /home/programs/G09_64/g09/l1.exe PID=     25231.
  
 Copyright (c) 1988,1990,1992,1993,1995,1998,2003,2009,2010,
            Gaussian, Inc.  All Rights Reserved.
  
 This is part of the Gaussian(R) 09 program.  It is based on
 the Gaussian(R) 03 system (copyright 2003, Gaussian, Inc.),
 the Gaussian(R) 98 system (copyright 1998, Gaussian, Inc.),
 the Gaussian(R) 94 system (copyright 1995, Gaussian, Inc.),
 the Gaussian 92(TM) system (copyright 1992, Gaussian, Inc.),
 the Gaussian 90(TM) system (copyright 1990, Gaussian, Inc.),
 the Gaussian 88(TM) system (copyright 1988, Gaussian, Inc.),
 the Gaussian 86(TM) system (copyright 1986, Carnegie Mellon
 University), and the Gaussian 82(TM) system (copyright 1983,
 Carnegie Mellon University). Gaussian is a federally registered
 trademark of Gaussian, Inc.
  
 This software contains proprietary and confidential information,
 including trade secrets, belonging to Gaussian, Inc.
  
 This software is provided under written license and may be
 used, copied, transmitted, or stored only in accord with that
 written license.
  
 The following legend is applicable only to US Government
 contracts under FAR:
  
                    RESTRICTED RIGHTS LEGEND
  
 Use, reproduction and disclosure by the US Government is
 subject to restrictions as set forth in subparagraphs (a)
 and (c) of the Commercial Computer Software - Restricted
 Rights clause in FAR 52.227-19.
  
 Gaussian, Inc.
 340 Quinnipiac St., Bldg. 40, Wallingford CT 06492
  
  
 ---------------------------------------------------------------
 Warning -- This program may not be used in any manner that
 competes with the business of Gaussian, Inc. or will provide
 assistance to any competitor of Gaussian, Inc.  The licensee
 of this program is prohibited from giving any competitor of
 Gaussian, Inc. access to this program.  By using this program,
 the user acknowledges that Gaussian, Inc. is engaged in the
 business of creating and licensing software in the field of
 computational chemistry and represents and warrants to the
 licensee that it is not a competitor of Gaussian, Inc. and that
 it will not use this program in any manner prohibited above.
 ---------------------------------------------------------------
  

 Cite this work as:
 Gaussian 09, Revision B.01,
 M. J. Frisch, G. W. Trucks, H. B. Schlegel, G. E. Scuseria, 
 M. A. Robb, J. R. Cheeseman, G. Scalmani, V. Barone, B. Mennucci, 
 G. A. Petersson, H. Nakatsuji, M. Caricato, X. Li, H. P. Hratchian, 
 A. F. Izmaylov, J. Bloino, G. Zheng, J. L. Sonnenberg, M. Hada, 
 M. Ehara, K. Toyota, R. Fukuda, J. Hasegawa, M. Ishida, T. Nakajima, 
 Y. Honda, O. Kitao, H. Nakai, T. Vreven, J. A. Montgomery, Jr., 
 J. E. Peralta, F. Ogliaro, M. Bearpark, J. J. Heyd, E. Brothers, 
 K. N. Kudin, V. N. Staroverov, T. Keith, R. Kobayashi, J. Normand, 
 K. Raghavachari, A. Rendell, J. C. Burant, S. S. Iyengar, J. Tomasi, 
 M. Cossi, N. Rega, J. M. Millam, M. Klene, J. E. Knox, J. B. Cross, 
 V. Bakken, C. Adamo, J. Jaramillo, R. Gomperts, R. E. Stratmann, 
 O. Yazyev, A. J. Austin, R. Cammi, C. Pomelli, J. W. Ochterski, 
 R. L. Martin, K. Morokuma, V. G. Zakrzewski, G. A. Voth, 
 P. Salvador, J. J. Dannenberg, S. Dapprich, A. D. Daniels, 
 O. Farkas, J. B. Foresman, J. V. Ortiz, J. Cioslowski, 
 and D. J. Fox, Gaussian, Inc., Wallingford CT, 2010.
 
 ******************************************
 Gaussian 09:  AM64L-G09RevB.01 12-Aug-2010
                24-Jan-2019 
 ******************************************
 %mem=1GB
 %chk=kk.chk
 ----------------------------------------------------------------------
 #p hf/sto-3g scf=verytight opt=(ts,noeigentest,calcfc) NoSymm freq uni
 ts=au
 ----------------------------------------------------------------------
 1/5=1,10=4,11=1,18=20,20=1,38=1/1,3;
 2/9=110,12=2,15=1,17=6,18=5,40=1/2;
 3/6=3,11=9,16=1,25=1,30=1,71=2/1,2,3;
 4//1;
 5/5=2,17=3,38=5/2;
 8/6=4,10=90,11=11/1;
 11/6=1,8=1,9=11,15=111,16=1,31=1/1,2,10;
 10/6=1,7=6,13=1,31=1/2;
 6/7=2,8=2,9=2,10=2,28=1/1;
 7/10=1,18=20,25=1,30=1/1,2,3,16;
 1/5=1,10=4,11=1,18=20/3(2);
 2/9=110,15=1/2;
 99//99;
 2/9=110,15=1/2;
 3/6=3,11=9,16=1,25=1,30=1,71=1/1,2,3;
 4/5=5,16=3/1;
 5/5=2,17=3,38=5/2;
 7/30=1/1,2,3,16;
 1/5=1,11=1,18=20/3(-5);
 2/9=110,15=1/2;
 6/7=2,8=2,9=2,10=2,19=2,28=1/1;
 99/9=1/99;
 Leave Link    1 at Thu Jan 24 17:02:45 2019, MaxMem=  134217728 cpu:       0.0
 (Enter /home/programs/G09_64/g09/l101.exe)
 ---
 ---
 ---
 Symbolic Z-matrix:
 Charge =  0 Multiplicity = 2
 C                     2.40148  -0.38974  -0.13651 
 C                    -0.07313   0.75261   0.57162 
 O                    -2.05374  -0.69331  -0.32412 
 H                     3.9423    0.8344    0.44388 
 H                     2.64365  -2.22155   0.76515 
 H                     2.50225  -0.65513  -2.16881 
 H                    -0.25316   1.24152   2.56419 
 H                    -0.14048   2.94263  -0.51812 
 H                    -3.62274  -0.02627   0.27837 
 H                    -0.20063   4.56709  -1.40141 
 
 NAtoms=     10 NQM=     10 NQMF=      0 NMic=      0 NMicF=      0 NTot=     10.
                    Isotopes and Nuclear Properties:
 (Nuclear quadrupole moments (NQMom) in fm**2, nuclear magnetic moments (NMagM)
  in nuclear magnetons)

  Atom         1           2           3           4           5           6           7           8           9          10
 IAtWgt=          12          12          16           1           1           1           1           1           1           1
 AtmWgt=  12.0000000  12.0000000  15.9949146   1.0078250   1.0078250   1.0078250   1.0078250   1.0078250   1.0078250   1.0078250
 NucSpn=           0           0           0           1           1           1           1           1           1           1
 AtZEff=   0.0000000   0.0000000   0.0000000   0.0000000   0.0000000   0.0000000   0.0000000   0.0000000   0.0000000   0.0000000
 NQMom=    0.0000000   0.0000000   0.0000000   0.0000000   0.0000000   0.0000000   0.0000000   0.0000000   0.0000000   0.0000000
 NMagM=    0.0000000   0.0000000   0.0000000   2.7928460   2.7928460   2.7928460   2.7928460   2.7928460   2.7928460   2.7928460
 Leave Link  101 at Thu Jan 24 17:02:45 2019, MaxMem=  134217728 cpu:       0.1
 (Enter /home/programs/G09_64/g09/l103.exe)

 GradGradGradGradGradGradGradGradGradGradGradGradGradGradGradGradGradGrad
 Berny optimization.
 Initialization pass.
                           ----------------------------
                           !    Initial Parameters    !
                           ! (Angstroms and Degrees)  !
 --------------------------                            --------------------------
 ! Name  Definition              Value          Derivative Info.                !
 --------------------------------------------------------------------------------
 ! R1    R(1,2)                  1.4902         calculate D2E/DX2 analytically  !
 ! R2    R(1,4)                  1.0857         calculate D2E/DX2 analytically  !
 ! R3    R(1,5)                  1.088          calculate D2E/DX2 analytically  !
 ! R4    R(1,6)                  1.0859         calculate D2E/DX2 analytically  !
 ! R5    R(2,3)                  1.3815         calculate D2E/DX2 analytically  !
 ! R6    R(2,7)                  1.0899         calculate D2E/DX2 analytically  !
 ! R7    R(2,8)                  1.2949         calculate D2E/DX2 analytically  !
 ! R8    R(3,9)                  0.9569         calculate D2E/DX2 analytically  !
 ! R9    R(8,10)                 0.979          calculate D2E/DX2 analytically  !
 ! A1    A(2,1,4)              110.2902         calculate D2E/DX2 analytically  !
 ! A2    A(2,1,5)              110.772          calculate D2E/DX2 analytically  !
 ! A3    A(2,1,6)              110.1612         calculate D2E/DX2 analytically  !
 ! A4    A(4,1,5)              108.6066         calculate D2E/DX2 analytically  !
 ! A5    A(4,1,6)              108.69           calculate D2E/DX2 analytically  !
 ! A6    A(5,1,6)              108.2592         calculate D2E/DX2 analytically  !
 ! A7    A(1,2,3)              110.8374         calculate D2E/DX2 analytically  !
 ! A8    A(1,2,7)              114.6072         calculate D2E/DX2 analytically  !
 ! A9    A(1,2,8)              105.9766         calculate D2E/DX2 analytically  !
 ! A10   A(3,2,7)              113.3969         calculate D2E/DX2 analytically  !
 ! A11   A(3,2,8)              108.7834         calculate D2E/DX2 analytically  !
 ! A12   A(7,2,8)              102.4732         calculate D2E/DX2 analytically  !
 ! A13   A(2,3,9)              109.8554         calculate D2E/DX2 analytically  !
 ! A14   L(2,8,10,1,-1)        179.3414         calculate D2E/DX2 analytically  !
 ! A15   L(2,8,10,1,-2)        176.9221         calculate D2E/DX2 analytically  !
 ! D1    D(4,1,2,3)            175.4912         calculate D2E/DX2 analytically  !
 ! D2    D(4,1,2,7)            -54.5943         calculate D2E/DX2 analytically  !
 ! D3    D(4,1,2,8)             57.6296         calculate D2E/DX2 analytically  !
 ! D4    D(5,1,2,3)            -64.2398         calculate D2E/DX2 analytically  !
 ! D5    D(5,1,2,7)             65.6748         calculate D2E/DX2 analytically  !
 ! D6    D(5,1,2,8)            177.8986         calculate D2E/DX2 analytically  !
 ! D7    D(6,1,2,3)             55.5115         calculate D2E/DX2 analytically  !
 ! D8    D(6,1,2,7)           -174.5739         calculate D2E/DX2 analytically  !
 ! D9    D(6,1,2,8)            -62.3501         calculate D2E/DX2 analytically  !
 ! D10   D(1,2,3,9)            174.5799         calculate D2E/DX2 analytically  !
 ! D11   D(7,2,3,9)             44.0284         calculate D2E/DX2 analytically  !
 ! D12   D(8,2,3,9)            -69.2828         calculate D2E/DX2 analytically  !
 --------------------------------------------------------------------------------
 Trust Radius=3.00D-01 FncErr=1.00D-07 GrdErr=1.00D-07
 Number of steps in this run=     46 maximum allowed number of steps=    100.
 Search for a saddle point of order  1.
 GradGradGradGradGradGradGradGradGradGradGradGradGradGradGradGradGradGrad

 Leave Link  103 at Thu Jan 24 17:02:45 2019, MaxMem=  134217728 cpu:       0.0
 (Enter /home/programs/G09_64/g09/l202.exe)
                          Input orientation:                          
 ---------------------------------------------------------------------
 Center     Atomic      Atomic             Coordinates (Angstroms)
 Number     Number       Type             X           Y           Z
 ---------------------------------------------------------------------
      1          6           0        1.270807   -0.206240   -0.072238
      2          6           0       -0.038700    0.398265    0.302488
      3          8           0       -1.086795   -0.366884   -0.171517
      4          1           0        2.086176    0.441543    0.234890
      5          1           0        1.398957   -1.175593    0.404897
      6          1           0        1.324132   -0.346681   -1.147687
      7          1           0       -0.133969    0.656981    1.356909
      8          1           0       -0.074338    1.557173   -0.274175
      9          1           0       -1.917072   -0.013900    0.147309
     10          1           0       -0.106169    2.416798   -0.741596
 ---------------------------------------------------------------------
                    Distance matrix (angstroms):
                    1          2          3          4          5
     1  C    0.000000
     2  C    1.490186   0.000000
     3  O    2.365153   1.381534   0.000000
     4  H    1.085715   2.126392   3.299465   0.000000
     5  H    1.087991   2.134097   2.676794   1.765305   0.000000
     6  H    1.085890   2.124915   2.601131   1.764520   1.761593
     7  H    2.181974   1.089869   2.071778   2.496875   2.571870
     8  H    2.227065   1.294943   2.176604   2.484270   3.178009
     9  H    3.201214   1.929312   0.956875   4.030025   3.523057
    10  H    3.037175   2.273574   3.005911   3.108301   4.060187
                    6          7          8          9         10
     6  H    0.000000
     7  H    3.066985   0.000000
     8  H    2.518611   1.863957   0.000000
     9  H    3.506161   2.256695   2.457965   0.000000
    10  H    3.138071   2.738878   0.979005   3.158768   0.000000
 Symmetry turned off by external request.
 Stoichiometry    C2H7O(2)
 Framework group  C1[X(C2H7O)]
 Deg. of freedom    24
 Full point group                 C1      NOp   1
 Rotational constants (GHZ):     24.4712247      9.0690190      7.7287440
 Leave Link  202 at Thu Jan 24 17:02:45 2019, MaxMem=  134217728 cpu:       0.0
 (Enter /home/programs/G09_64/g09/l301.exe)
 Standard basis: STO-3G (5D, 7F)
 Ernie: Thresh=  0.10000D-02 Tol=  0.10000D-05 Strict=F.
 Integral buffers will be    131072 words long.
 Raffenetti 2 integral format.
 Two-electron integral symmetry is turned off.
    22 basis functions,    66 primitive gaussians,    22 cartesian basis functions
    14 alpha electrons       13 beta electrons
       nuclear repulsion energy        87.4057904544 Hartrees.
 IExCor=    0 DFT=F Ex=HF Corr=None ExCW=0 ScaHFX=  1.000000
 ScaDFX=  1.000000  1.000000  1.000000  1.000000 ScalE2=  1.000000  1.000000
 IRadAn=      0 IRanWt=     -1 IRanGd=            0 ICorTp=0
 NAtoms=   10 NActive=   10 NUniq=   10 SFac= 1.00D+00 NAtFMM=   50 NAOKFM=F Big=F
 Leave Link  301 at Thu Jan 24 17:02:45 2019, MaxMem=  134217728 cpu:       0.1
 (Enter /home/programs/G09_64/g09/l302.exe)
 NPDir=0 NMtPBC=     1 NCelOv=     1 NCel=       1 NClECP=     1 NCelD=      1
         NCelK=      1 NCelE2=     1 NClLst=     1 CellRange=     0.0.
 One-electron integrals computed using PRISM.
 NBasis=    22 RedAO= T  NBF=    22
 NBsUse=    22 1.00D-06 NBFU=    22
 Leave Link  302 at Thu Jan 24 17:02:45 2019, MaxMem=  134217728 cpu:       0.1
 (Enter /home/programs/G09_64/g09/l303.exe)
 DipDrv:  MaxL=1.
 Leave Link  303 at Thu Jan 24 17:02:45 2019, MaxMem=  134217728 cpu:       0.0
 (Enter /home/programs/G09_64/g09/l401.exe)
 Harris functional with IExCor=  205 diagonalized for initial guess.
 ExpMin= 1.69D-01 ExpMax= 1.31D+02 ExpMxC= 1.31D+02 IAcc=1 IRadAn=         1 AccDes= 0.00D+00
 HarFok:  IExCor=  205 AccDes= 0.00D+00 IRadAn=         1 IDoV= 1
 ScaDFX=  1.000000  1.000000  1.000000  1.000000
 FoFCou: FMM=F IPFlag=           0 FMFlag=      100000 FMFlg1=           0
         NFxFlg=           0 DoJE=T BraDBF=F KetDBF=T FulRan=T
         Omega=  0.000000  0.000000  1.000000  0.000000  0.000000 ICntrl=     500 IOpCl=  0
         NMat0=    1 NMatS0=    1 NMatT0=    0 NMatD0=    1 NMtDS0=    0 NMtDT0=    0
         I1Cent=           4 NGrid=           0.
 Symmetry not used in FoFCou.
 Harris En= -152.799261242560    
 Initial guess <Sx>= 0.0000 <Sy>= 0.0000 <Sz>= 0.5000 <S**2>= 0.7500 S= 0.5000
 Leave Link  401 at Thu Jan 24 17:02:45 2019, MaxMem=  134217728 cpu:       0.3
 (Enter /home/programs/G09_64/g09/l502.exe)
 UHF open shell SCF:
 Requested convergence on RMS density matrix=1.00D-08 within 128 cycles.
 Requested convergence on MAX density matrix=1.00D-06.
 Requested convergence on             energy=1.00D-06.
 No special actions if energy rises.
 Using DIIS extrapolation, IDIIS=  1040.
 Two-electron integral symmetry not used.
 Keep R1 and R2 ints in memory in canonical form, NReq=884165.
 IEnd=       19882 IEndB=       19882 NGot=   134217728 MDV=   134150703
 LenX=   134150703 LenY=   134149778
 Symmetry not used in FoFDir.
 MinBra= 0 MaxBra= 1 Meth= 1.
 IRaf=       0 NMat=   1 IRICut=       1 DoRegI=T DoRafI=F ISym2E= 0 JSym2E=0.

 Cycle   1  Pass 1  IDiag  1:
 E= -152.470143496081    
 DIIS: error= 3.68D-02 at cycle   1 NSaved=   1.
 NSaved= 1 IEnMin= 1 EnMin= -152.470143496081     IErMin= 1 ErrMin= 3.68D-02
 ErrMax= 3.68D-02 EMaxC= 1.00D-01 BMatC= 2.92D-01 BMatP= 2.92D-01
 IDIUse=3 WtCom= 6.32D-01 WtEn= 3.68D-01
 Coeff-Com:  0.100D+01
 Coeff-En:   0.100D+01
 Coeff:      0.100D+01
 Gap=     0.835 Goal=   None    Shift=    0.000
 Gap=     0.526 Goal=   None    Shift=    0.000
 GapD=    0.526 DampG=2.000 DampE=0.500 DampFc=1.0000 IDamp=-1.
 RMSDP=1.72D-02 MaxDP=1.04D-01              OVMax= 0.00D+00

 Cycle   2  Pass 1  IDiag  1:
 E= -152.554276379042     Delta-E=       -0.084132882962 Rises=F Damp=F
 DIIS: error= 1.16D-02 at cycle   2 NSaved=   2.
 NSaved= 2 IEnMin= 2 EnMin= -152.554276379042     IErMin= 2 ErrMin= 1.16D-02
 ErrMax= 1.16D-02 EMaxC= 1.00D-01 BMatC= 1.48D-02 BMatP= 2.92D-01
 IDIUse=3 WtCom= 8.84D-01 WtEn= 1.16D-01
 Coeff-Com:  0.619D-01 0.938D+00
 Coeff-En:   0.000D+00 0.100D+01
 Coeff:      0.547D-01 0.945D+00
 Gap=     0.815 Goal=   None    Shift=    0.000
 Gap=     0.561 Goal=   None    Shift=    0.000
 RMSDP=4.58D-03 MaxDP=4.03D-02 DE=-8.41D-02 OVMax= 0.00D+00

 Cycle   3  Pass 1  IDiag  1:
 E= -152.562054509670     Delta-E=       -0.007778130627 Rises=F Damp=F
 DIIS: error= 7.46D-03 at cycle   3 NSaved=   3.
 NSaved= 3 IEnMin= 3 EnMin= -152.562054509670     IErMin= 3 ErrMin= 7.46D-03
 ErrMax= 7.46D-03 EMaxC= 1.00D-01 BMatC= 2.95D-03 BMatP= 1.48D-02
 IDIUse=3 WtCom= 9.25D-01 WtEn= 7.46D-02
 Coeff-Com: -0.461D-01-0.170D+00 0.122D+01
 Coeff-En:   0.000D+00 0.000D+00 0.100D+01
 Coeff:     -0.427D-01-0.157D+00 0.120D+01
 Gap=     0.820 Goal=   None    Shift=    0.000
 Gap=     0.589 Goal=   None    Shift=    0.000
 RMSDP=2.86D-03 MaxDP=3.12D-02 DE=-7.78D-03 OVMax= 0.00D+00

 Cycle   4  Pass 1  IDiag  1:
 E= -152.564703843527     Delta-E=       -0.002649333857 Rises=F Damp=F
 DIIS: error= 3.47D-03 at cycle   4 NSaved=   4.
 NSaved= 4 IEnMin= 4 EnMin= -152.564703843527     IErMin= 4 ErrMin= 3.47D-03
 ErrMax= 3.47D-03 EMaxC= 1.00D-01 BMatC= 7.20D-04 BMatP= 2.95D-03
 IDIUse=3 WtCom= 9.65D-01 WtEn= 3.47D-02
 Coeff-Com:  0.151D-01-0.442D-01-0.794D+00 0.182D+01
 Coeff-En:   0.000D+00 0.000D+00 0.000D+00 0.100D+01
 Coeff:      0.146D-01-0.427D-01-0.766D+00 0.179D+01
 Gap=     0.830 Goal=   None    Shift=    0.000
 Gap=     0.606 Goal=   None    Shift=    0.000
 RMSDP=2.46D-03 MaxDP=2.61D-02 DE=-2.65D-03 OVMax= 0.00D+00

 Cycle   5  Pass 1  IDiag  1:
 E= -152.565553576416     Delta-E=       -0.000849732889 Rises=F Damp=F
 DIIS: error= 6.91D-04 at cycle   5 NSaved=   5.
 NSaved= 5 IEnMin= 5 EnMin= -152.565553576416     IErMin= 5 ErrMin= 6.91D-04
 ErrMax= 6.91D-04 EMaxC= 1.00D-01 BMatC= 3.97D-05 BMatP= 7.20D-04
 IDIUse=3 WtCom= 9.93D-01 WtEn= 6.91D-03
 Coeff-Com:  0.766D-04 0.325D-01 0.102D+00-0.377D+00 0.124D+01
 Coeff-En:   0.000D+00 0.000D+00 0.000D+00 0.000D+00 0.100D+01
 Coeff:      0.761D-04 0.323D-01 0.101D+00-0.374D+00 0.124D+01
 Gap=     0.828 Goal=   None    Shift=    0.000
 Gap=     0.608 Goal=   None    Shift=    0.000
 RMSDP=3.72D-04 MaxDP=3.04D-03 DE=-8.50D-04 OVMax= 0.00D+00

 Cycle   6  Pass 1  IDiag  1:
 E= -152.565588631059     Delta-E=       -0.000035054644 Rises=F Damp=F
 DIIS: error= 3.81D-04 at cycle   6 NSaved=   6.
 NSaved= 6 IEnMin= 6 EnMin= -152.565588631059     IErMin= 6 ErrMin= 3.81D-04
 ErrMax= 3.81D-04 EMaxC= 1.00D-01 BMatC= 9.79D-06 BMatP= 3.97D-05
 IDIUse=3 WtCom= 9.96D-01 WtEn= 3.81D-03
 Coeff-Com: -0.314D-02 0.552D-02 0.135D+00-0.322D+00-0.966D-01 0.128D+01
 Coeff-En:   0.000D+00 0.000D+00 0.000D+00 0.000D+00 0.000D+00 0.100D+01
 Coeff:     -0.313D-02 0.550D-02 0.135D+00-0.321D+00-0.962D-01 0.128D+01
 Gap=     0.829 Goal=   None    Shift=    0.000
 Gap=     0.608 Goal=   None    Shift=    0.000
 RMSDP=2.57D-04 MaxDP=2.06D-03 DE=-3.51D-05 OVMax= 0.00D+00

 Cycle   7  Pass 1  IDiag  1:
 E= -152.565599923848     Delta-E=       -0.000011292789 Rises=F Damp=F
 DIIS: error= 1.12D-04 at cycle   7 NSaved=   7.
 NSaved= 7 IEnMin= 7 EnMin= -152.565599923848     IErMin= 7 ErrMin= 1.12D-04
 ErrMax= 1.12D-04 EMaxC= 1.00D-01 BMatC= 1.29D-06 BMatP= 9.79D-06
 IDIUse=3 WtCom= 9.99D-01 WtEn= 1.12D-03
 Coeff-Com:  0.117D-02-0.562D-02-0.659D-01 0.169D+00-0.879D-01-0.739D+00
 Coeff-Com:  0.173D+01
 Coeff-En:   0.000D+00 0.000D+00 0.000D+00 0.000D+00 0.000D+00 0.000D+00
 Coeff-En:   0.100D+01
 Coeff:      0.117D-02-0.561D-02-0.658D-01 0.169D+00-0.878D-01-0.739D+00
 Coeff:      0.173D+01
 Gap=     0.829 Goal=   None    Shift=    0.000
 Gap=     0.608 Goal=   None    Shift=    0.000
 RMSDP=1.38D-04 MaxDP=1.02D-03 DE=-1.13D-05 OVMax= 0.00D+00

 Cycle   8  Pass 1  IDiag  1:
 E= -152.565601554104     Delta-E=       -0.000001630256 Rises=F Damp=F
 DIIS: error= 2.53D-05 at cycle   8 NSaved=   8.
 NSaved= 8 IEnMin= 8 EnMin= -152.565601554104     IErMin= 8 ErrMin= 2.53D-05
 ErrMax= 2.53D-05 EMaxC= 1.00D-01 BMatC= 6.13D-08 BMatP= 1.29D-06
 IDIUse=1 WtCom= 1.00D+00 WtEn= 0.00D+00
 Coeff-Com:  0.120D-03-0.188D-03-0.456D-02 0.143D-01-0.112D-01 0.181D-01
 Coeff-Com: -0.984D-01 0.108D+01
 Coeff:      0.120D-03-0.188D-03-0.456D-02 0.143D-01-0.112D-01 0.181D-01
 Coeff:     -0.984D-01 0.108D+01
 Gap=     0.829 Goal=   None    Shift=    0.000
 Gap=     0.608 Goal=   None    Shift=    0.000
 RMSDP=1.40D-05 MaxDP=1.12D-04 DE=-1.63D-06 OVMax= 0.00D+00

 Cycle   9  Pass 1  IDiag  1:
 E= -152.565601598127     Delta-E=       -0.000000044022 Rises=F Damp=F
 DIIS: error= 8.11D-06 at cycle   9 NSaved=   9.
 NSaved= 9 IEnMin= 9 EnMin= -152.565601598127     IErMin= 9 ErrMin= 8.11D-06
 ErrMax= 8.11D-06 EMaxC= 1.00D-01 BMatC= 1.19D-08 BMatP= 6.13D-08
 IDIUse=1 WtCom= 1.00D+00 WtEn= 0.00D+00
 Coeff-Com: -0.182D-03 0.708D-03 0.967D-02-0.259D-01 0.152D-01 0.880D-01
 Coeff-Com: -0.198D+00-0.426D+00 0.154D+01
 Coeff:     -0.182D-03 0.708D-03 0.967D-02-0.259D-01 0.152D-01 0.880D-01
 Coeff:     -0.198D+00-0.426D+00 0.154D+01
 Gap=     0.829 Goal=   None    Shift=    0.000
 Gap=     0.608 Goal=   None    Shift=    0.000
 RMSDP=8.48D-06 MaxDP=6.72D-05 DE=-4.40D-08 OVMax= 0.00D+00

 Cycle  10  Pass 1  IDiag  1:
 E= -152.565601610129     Delta-E=       -0.000000012002 Rises=F Damp=F
 DIIS: error= 5.41D-06 at cycle  10 NSaved=  10.
 NSaved=10 IEnMin=10 EnMin= -152.565601610129     IErMin=10 ErrMin= 5.41D-06
 ErrMax= 5.41D-06 EMaxC= 1.00D-01 BMatC= 2.18D-09 BMatP= 1.19D-08
 IDIUse=1 WtCom= 1.00D+00 WtEn= 0.00D+00
 Coeff-Com:  0.966D-04-0.382D-03-0.531D-02 0.135D-01-0.400D-02-0.687D-01
 Coeff-Com:  0.148D+00 0.183D+00-0.114D+01 0.188D+01
 Coeff:      0.966D-04-0.382D-03-0.531D-02 0.135D-01-0.400D-02-0.687D-01
 Coeff:      0.148D+00 0.183D+00-0.114D+01 0.188D+01
 Gap=     0.829 Goal=   None    Shift=    0.000
 Gap=     0.608 Goal=   None    Shift=    0.000
 RMSDP=4.43D-06 MaxDP=3.89D-05 DE=-1.20D-08 OVMax= 0.00D+00

 Cycle  11  Pass 1  IDiag  1:
 E= -152.565601612424     Delta-E=       -0.000000002295 Rises=F Damp=F
 DIIS: error= 2.02D-06 at cycle  11 NSaved=  11.
 NSaved=11 IEnMin=11 EnMin= -152.565601612424     IErMin=11 ErrMin= 2.02D-06
 ErrMax= 2.02D-06 EMaxC= 1.00D-01 BMatC= 2.40D-10 BMatP= 2.18D-09
 IDIUse=1 WtCom= 1.00D+00 WtEn= 0.00D+00
 Coeff-Com: -0.106D-04 0.167D-04 0.637D-03-0.122D-02-0.255D-02 0.194D-01
 Coeff-Com: -0.331D-01-0.668D-01 0.358D+00-0.777D+00 0.150D+01
 Coeff:     -0.106D-04 0.167D-04 0.637D-03-0.122D-02-0.255D-02 0.194D-01
 Coeff:     -0.331D-01-0.668D-01 0.358D+00-0.777D+00 0.150D+01
 Gap=     0.829 Goal=   None    Shift=    0.000
 Gap=     0.608 Goal=   None    Shift=    0.000
 RMSDP=1.39D-06 MaxDP=1.26D-05 DE=-2.29D-09 OVMax= 0.00D+00

 Cycle  12  Pass 1  IDiag  1:
 E= -152.565601612646     Delta-E=       -0.000000000223 Rises=F Damp=F
 DIIS: error= 3.62D-07 at cycle  12 NSaved=  12.
 NSaved=12 IEnMin=12 EnMin= -152.565601612646     IErMin=12 ErrMin= 3.62D-07
 ErrMax= 3.62D-07 EMaxC= 1.00D-01 BMatC= 1.40D-11 BMatP= 2.40D-10
 IDIUse=1 WtCom= 1.00D+00 WtEn= 0.00D+00
 Coeff-Com:  0.251D-05 0.607D-05-0.166D-03 0.134D-03 0.203D-02-0.981D-02
 Coeff-Com:  0.145D-01 0.360D-01-0.170D+00 0.384D+00-0.972D+00 0.171D+01
 Coeff:      0.251D-05 0.607D-05-0.166D-03 0.134D-03 0.203D-02-0.981D-02
 Coeff:      0.145D-01 0.360D-01-0.170D+00 0.384D+00-0.972D+00 0.171D+01
 Gap=     0.829 Goal=   None    Shift=    0.000
 Gap=     0.608 Goal=   None    Shift=    0.000
 RMSDP=3.16D-07 MaxDP=2.17D-06 DE=-2.23D-10 OVMax= 0.00D+00

 Cycle  13  Pass 1  IDiag  1:
 E= -152.565601612660     Delta-E=       -0.000000000014 Rises=F Damp=F
 DIIS: error= 7.48D-08 at cycle  13 NSaved=  13.
 NSaved=13 IEnMin=13 EnMin= -152.565601612660     IErMin=13 ErrMin= 7.48D-08
 ErrMax= 7.48D-08 EMaxC= 1.00D-01 BMatC= 1.24D-12 BMatP= 1.40D-11
 IDIUse=1 WtCom= 1.00D+00 WtEn= 0.00D+00
 Coeff-Com:  0.127D-05-0.130D-04-0.553D-04 0.286D-03-0.114D-02 0.320D-02
 Coeff-Com: -0.348D-02-0.145D-01 0.578D-01-0.141D+00 0.436D+00-0.105D+01
 Coeff-Com:  0.171D+01
 Coeff:      0.127D-05-0.130D-04-0.553D-04 0.286D-03-0.114D-02 0.320D-02
 Coeff:     -0.348D-02-0.145D-01 0.578D-01-0.141D+00 0.436D+00-0.105D+01
 Coeff:      0.171D+01
 Gap=     0.829 Goal=   None    Shift=    0.000
 Gap=     0.608 Goal=   None    Shift=    0.000
 RMSDP=1.01D-07 MaxDP=7.33D-07 DE=-1.36D-11 OVMax= 0.00D+00

 Cycle  14  Pass 1  IDiag  1:
 E= -152.565601612661     Delta-E=       -0.000000000001 Rises=F Damp=F
 DIIS: error= 2.02D-08 at cycle  14 NSaved=  14.
 NSaved=14 IEnMin=14 EnMin= -152.565601612661     IErMin=14 ErrMin= 2.02D-08
 ErrMax= 2.02D-08 EMaxC= 1.00D-01 BMatC= 7.93D-14 BMatP= 1.24D-12
 IDIUse=1 WtCom= 1.00D+00 WtEn= 0.00D+00
 Coeff-Com: -0.183D-06 0.346D-05 0.472D-05-0.694D-04 0.422D-03-0.142D-02
 Coeff-Com:  0.173D-02 0.586D-02-0.241D-01 0.567D-01-0.170D+00 0.430D+00
 Coeff-Com: -0.889D+00 0.159D+01
 Coeff:     -0.183D-06 0.346D-05 0.472D-05-0.694D-04 0.422D-03-0.142D-02
 Coeff:      0.173D-02 0.586D-02-0.241D-01 0.567D-01-0.170D+00 0.430D+00
 Coeff:     -0.889D+00 0.159D+01
 Gap=     0.829 Goal=   None    Shift=    0.000
 Gap=     0.608 Goal=   None    Shift=    0.000
 RMSDP=2.40D-08 MaxDP=1.96D-07 DE=-1.36D-12 OVMax= 0.00D+00

 Cycle  15  Pass 1  IDiag  1:
 E= -152.565601612661     Delta-E=        0.000000000000 Rises=F Damp=F
 DIIS: error= 8.58D-09 at cycle  15 NSaved=  15.
 NSaved=15 IEnMin=15 EnMin= -152.565601612661     IErMin=15 ErrMin= 8.58D-09
 ErrMax= 8.58D-09 EMaxC= 1.00D-01 BMatC= 7.88D-15 BMatP= 7.93D-14
 IDIUse=1 WtCom= 1.00D+00 WtEn= 0.00D+00
 Coeff-Com:  0.154D-06-0.145D-05-0.714D-05 0.375D-04-0.143D-03 0.401D-03
 Coeff-Com: -0.424D-03-0.172D-02 0.665D-02-0.163D-01 0.533D-01-0.151D+00
 Coeff-Com:  0.361D+00-0.945D+00 0.169D+01
 Coeff:      0.154D-06-0.145D-05-0.714D-05 0.375D-04-0.143D-03 0.401D-03
 Coeff:     -0.424D-03-0.172D-02 0.665D-02-0.163D-01 0.533D-01-0.151D+00
 Coeff:      0.361D+00-0.945D+00 0.169D+01
 Gap=     0.829 Goal=   None    Shift=    0.000
 Gap=     0.608 Goal=   None    Shift=    0.000
 RMSDP=8.97D-09 MaxDP=5.82D-08 DE=-1.14D-13 OVMax= 0.00D+00

 SCF Done:  E(UHF) =  -152.565601613     A.U. after   15 cycles
             Convg  =    0.8975D-08             -V/T =  2.0058
 <Sx>= 0.0000 <Sy>= 0.0000 <Sz>= 0.5000 <S**2>= 0.7890 S= 0.5193
 <L.S>= 0.000000000000E+00
 KE= 1.516910244245D+02 PE=-5.332519390376D+02 EE= 1.415895225460D+02
 Annihilation of the first spin contaminant:
 S**2 before annihilation     0.7890,   after     0.7502
 Leave Link  502 at Thu Jan 24 17:02:45 2019, MaxMem=  134217728 cpu:       0.1
 (Enter /home/programs/G09_64/g09/l801.exe)
 Range of M.O.s used for correlation:     1    22
 NBasis=    22 NAE=    14 NBE=    13 NFC=     0 NFV=     0
 NROrb=     22 NOA=    14 NOB=    13 NVA=     8 NVB=     9
 Leave Link  801 at Thu Jan 24 17:02:45 2019, MaxMem=  134217728 cpu:       0.0
 (Enter /home/programs/G09_64/g09/l1101.exe)
 Using compressed storage, NAtomX=    10.
 Will process  11 centers per pass.
 Leave Link 1101 at Thu Jan 24 17:02:46 2019, MaxMem=  134217728 cpu:       0.1
 (Enter /home/programs/G09_64/g09/l1102.exe)
 Symmetrizing basis deriv contribution to polar:
 IMax=3 JMax=2 DiffMx= 0.00D+00
 Leave Link 1102 at Thu Jan 24 17:02:46 2019, MaxMem=  134217728 cpu:       0.0
 (Enter /home/programs/G09_64/g09/l1110.exe)
 Forming Gx(P) for the SCF density, NAtomX=    10.
 Integral derivatives from FoFDir/FoFCou, PRISM(SPDF).
 Do as many integral derivatives as possible in FoFDir.
 G2DrvN: MDV=     134217544.
 G2DrvN: will do    11 centers at a time, making    1 passes doing MaxLOS=1.
 Calling FoFCou, ICntrl=  3107 FMM=F I1Cent=   0 AccDes= 0.00D+00.
 FoFCou: FMM=F IPFlag=           0 FMFlag=      100000 FMFlg1=           0
         NFxFlg=           0 DoJE=F BraDBF=F KetDBF=F FulRan=T
         Omega=  0.000000  0.000000  1.000000  0.000000  0.000000 ICntrl=    3107 IOpCl=  1
         NMat0=    1 NMatS0=    1 NMatT0=    0 NMatD0=    1 NMtDS0=    0 NMtDT0=    0
         I1Cent=           0 NGrid=           0.
 Symmetry not used in FoFCou.
 FoFDir/FoFCou used for L=0 through L=1.
 End of G2Drv Frequency-dependent properties file   721 does not exist.
 End of G2Drv Frequency-dependent properties file   722 does not exist.
 Leave Link 1110 at Thu Jan 24 17:02:46 2019, MaxMem=  134217728 cpu:       0.1
 (Enter /home/programs/G09_64/g09/l1002.exe)
 Minotr:  UHF open shell wavefunction.
          IDoAtm=1111111111
          Direct CPHF calculation.
          Differentiating once with respect to nuclear coordinates.
          Requested convergence is 1.0D-06 RMS, and 1.0D-05 maximum.
          Secondary convergence is 1.0D-12 RMS, and 1.0D-12 maximum.
          NewPWx=T KeepS1=F KeepF1=F KeepIn=T MapXYZ=F SortEE=F KeepMc=T.
          MDV=     134217624 using IRadAn=       2.
          Keep R1 and R2 ints in memory in canonical form, NReq=864982.
 Symmetry not used in FoFDir.
 MinBra= 0 MaxBra= 1 Meth= 1.
 IRaf=       0 NMat=   1 IRICut=       1 DoRegI=T DoRafI=F ISym2E= 0 JSym2E=0.
          Solving linear equations simultaneously, MaxMat=       0.
          There are    33 degrees of freedom in the 1st order CPHF.  IDoFFX=5.
     27 vectors produced by pass  0 Test12= 6.94D-12 3.03D-07 XBig12= 9.84D-02 1.51D-01.
 AX will form    27 AO Fock derivatives at one time.
     27 vectors produced by pass  1 Test12= 6.94D-12 3.03D-07 XBig12= 9.21D-04 6.95D-03.
     27 vectors produced by pass  2 Test12= 6.94D-12 3.03D-07 XBig12= 8.74D-06 6.34D-04.
     27 vectors produced by pass  3 Test12= 6.94D-12 3.03D-07 XBig12= 8.00D-08 5.89D-05.
     14 vectors produced by pass  4 Test12= 6.94D-12 3.03D-07 XBig12= 4.73D-10 4.66D-06.
 Inverted reduced A of dimension   122 with in-core refinement.
 End of Minotr Frequency-dependent properties file   721 does not exist.
 End of Minotr Frequency-dependent properties file   722 does not exist.
 Leave Link 1002 at Thu Jan 24 17:02:46 2019, MaxMem=  134217728 cpu:       0.1
 (Enter /home/programs/G09_64/g09/l601.exe)
 Copying SCF densities to generalized density rwf, IOpCl= 1 IROHF=0.

 **********************************************************************

            Population analysis using the SCF density.

 **********************************************************************

 Alpha  occ. eigenvalues --  -20.26899 -11.09163 -11.04283  -1.31312  -0.98394
 Alpha  occ. eigenvalues --   -0.80353  -0.65500  -0.63785  -0.52999  -0.51057
 Alpha  occ. eigenvalues --   -0.49947  -0.45267  -0.40390  -0.26315
 Alpha virt. eigenvalues --    0.56601   0.64071   0.68137   0.72507   0.73937
 Alpha virt. eigenvalues --    0.75690   0.80072   0.81470
  Beta  occ. eigenvalues --  -20.26756 -11.07309 -11.04441  -1.30233  -0.96674
  Beta  occ. eigenvalues --   -0.77088  -0.64252  -0.58526  -0.51955  -0.49499
  Beta  occ. eigenvalues --   -0.48221  -0.41443  -0.36123
  Beta virt. eigenvalues --    0.24701   0.57881   0.66156   0.69074   0.73199
  Beta virt. eigenvalues --    0.75387   0.77207   0.83131   0.87936
          Condensed to atoms (all electrons):
              1          2          3          4          5          6
     1  C    4.728815   0.368887  -0.021785   0.384561   0.381941   0.384888
     2  C    0.368887   4.875768   0.282697  -0.021046  -0.021691  -0.022772
     3  O   -0.021785   0.282697   7.814067   0.000682  -0.000610  -0.000767
     4  H    0.384561  -0.021046   0.000682   0.612701  -0.020830  -0.020116
     5  H    0.381941  -0.021691  -0.000610  -0.020830   0.614409  -0.021385
     6  H    0.384888  -0.022772  -0.000767  -0.020116  -0.021385   0.606528
     7  H   -0.023692   0.373700  -0.016465  -0.001857  -0.001818   0.001916
     8  H   -0.016283   0.196259  -0.011594  -0.001707   0.001210  -0.002201
     9  H    0.002968  -0.043500   0.264782  -0.000091   0.000009   0.000035
    10  H   -0.000774  -0.043572  -0.000175   0.000170  -0.000017   0.000120
              7          8          9         10
     1  C   -0.023692  -0.016283   0.002968  -0.000774
     2  C    0.373700   0.196259  -0.043500  -0.043572
     3  O   -0.016465  -0.011594   0.264782  -0.000175
     4  H   -0.001857  -0.001707  -0.000091   0.000170
     5  H   -0.001818   0.001210   0.000009  -0.000017
     6  H    0.001916  -0.002201   0.000035   0.000120
     7  H    0.645106  -0.018421  -0.004953  -0.000649
     8  H   -0.018421   0.648945  -0.001141   0.176421
     9  H   -0.004953  -0.001141   0.580015   0.000042
    10  H   -0.000649   0.176421   0.000042   0.910888
 Mulliken atomic charges:
              1
     1  C   -0.189527
     2  C    0.055269
     3  O   -0.310832
     4  H    0.067532
     5  H    0.068782
     6  H    0.073754
     7  H    0.047132
     8  H    0.028511
     9  H    0.201835
    10  H   -0.042455
 Sum of Mulliken atomic charges =   0.00000
 Mulliken charges with hydrogens summed into heavy atoms:
              1
     1  C    0.020540
     2  C    0.088457
     3  O   -0.108997
 Sum of Mulliken charges with hydrogens summed into heavy atoms =   0.00000
          Atomic-Atomic Spin Densities.
              1          2          3          4          5          6
     1  C   -0.057885  -0.014911   0.000419   0.001937   0.001151   0.002091
     2  C   -0.014911   0.731637  -0.035759  -0.001746  -0.004465  -0.002440
     3  O    0.000419  -0.035759   0.060137   0.000013   0.000302   0.000127
     4  H    0.001937  -0.001746   0.000013   0.005896  -0.001346   0.000234
     5  H    0.001151  -0.004465   0.000302  -0.001346   0.032043  -0.001807
     6  H    0.002091  -0.002440   0.000127   0.000234  -0.001807   0.009183
     7  H    0.001702  -0.014030   0.000374   0.000298  -0.000652   0.000108
     8  H    0.002940   0.032958   0.001165  -0.000039  -0.000063   0.000053
     9  H    0.000032  -0.001825  -0.000124   0.000002  -0.000024   0.000010
    10  H    0.001576  -0.056495   0.001529   0.000336  -0.000113   0.000447
              7          8          9         10
     1  C    0.001702   0.002940   0.000032   0.001576
     2  C   -0.014030   0.032958  -0.001825  -0.056495
     3  O    0.000374   0.001165  -0.000124   0.001529
     4  H    0.000298  -0.000039   0.000002   0.000336
     5  H   -0.000652  -0.000063  -0.000024  -0.000113
     6  H    0.000108   0.000053   0.000010   0.000447
     7  H   -0.024833   0.003588   0.000316   0.002250
     8  H    0.003588  -0.268427  -0.000007  -0.027190
     9  H    0.000316  -0.000007  -0.000879   0.000220
    10  H    0.002250  -0.027190   0.000220   0.726844
 Mulliken atomic spin densities:
              1
     1  C   -0.060948
     2  C    0.632924
     3  O    0.028183
     4  H    0.005585
     5  H    0.025025
     6  H    0.008008
     7  H   -0.030879
     8  H   -0.255021
     9  H   -0.002279
    10  H    0.649404
 Sum of Mulliken atomic spin densities =   1.00000
 APT atomic charges:
              1
     1  C   -0.996868
     2  C   -0.263809
     3  O   -0.646679
     4  H    0.405428
     5  H    0.323464
     6  H    0.306967
     7  H    0.317073
     8  H   -0.083111
     9  H    0.487284
    10  H    0.150250
 Sum of APT charges=   0.00000
 APT Atomic charges with hydrogens summed into heavy atoms:
              1
     1  C    0.038992
     2  C    0.120403
     3  O   -0.159395
     4  H    0.000000
     5  H    0.000000
     6  H    0.000000
     7  H    0.000000
     8  H    0.000000
     9  H    0.000000
    10  H    0.000000
 Sum of APT charges=   0.00000
 Electronic spatial extent (au):  <R**2>=            215.8598
 Charge=              0.0000 electrons
 Dipole moment (field-independent basis, Debye):
    X=             -0.2596    Y=              0.5050    Z=              1.0561  Tot=              1.1990
 Quadrupole moment (field-independent basis, Debye-Ang):
   XX=            -16.9819   YY=            -21.2223   ZZ=            -19.4745
   XY=             -1.0620   XZ=             -1.1027   YZ=              0.2137
 Traceless Quadrupole moment (field-independent basis, Debye-Ang):
   XX=              2.2443   YY=             -1.9961   ZZ=             -0.2482
   XY=             -1.0620   XZ=             -1.1027   YZ=              0.2137
 Octapole moment (field-independent basis, Debye-Ang**2):
  XXX=            -16.0971  YYY=            -10.1748  ZZZ=             -0.4208  XYY=             -2.1631
  XXY=             -0.8994  XXZ=              1.5017  XZZ=             -2.8453  YZZ=             -2.5752
  YYZ=              0.9021  XYZ=              0.1889
 Hexadecapole moment (field-independent basis, Debye-Ang**3):
 XXXX=           -128.6878 YYYY=            -83.3291 ZZZZ=            -35.2310 XXXY=              3.0513
 XXXZ=             -0.5634 YYYX=              1.9582 YYYZ=              1.6105 ZZZX=             -0.4942
 ZZZY=              1.9275 XXYY=            -37.1801 XXZZ=            -30.2664 YYZZ=            -19.4208
 XXYZ=              0.4092 YYXZ=              0.6428 ZZXY=              0.4574
 N-N= 8.740579045443D+01 E-N=-7.950906844052D+02  KE= 2.267955233134D+02
  Exact polarizability:   0.000   0.000   0.000   0.000   0.000   0.000
 Approx polarizability:  11.525   0.721  15.506  -0.118  -1.678  10.446
                          Isotropic Fermi Contact Couplings
        Atom                 a.u.       MegaHertz       Gauss      10(-4) cm-1
     1  C(13)             -0.02385     -26.80909      -9.56615      -8.94255
     2  C(13)              0.22902     257.46077      91.86840      85.87967
     3  O(17)              0.01053      -6.38207      -2.27728      -2.12883
     4  H(1)               0.00228      10.18195       3.63317       3.39633
     5  H(1)               0.01215      54.30614      19.37778      18.11458
     6  H(1)               0.00349      15.58287       5.56035       5.19788
     7  H(1)              -0.00952     -42.57513     -15.19186     -14.20153
     8  H(1)              -0.10121    -452.41672    -161.43353    -150.90997
     9  H(1)              -0.00042      -1.89197      -0.67510      -0.63109
    10  H(1)               0.27650    1235.91177     441.00404     412.25579
 --------------------------------------------------------
       Center         ----  Spin Dipole Couplings  ----
                      3XX-RR        3YY-RR        3ZZ-RR
 --------------------------------------------------------
     1   Atom        0.008619     -0.001911     -0.006708
     2   Atom       -0.296103      0.380081     -0.083978
     3   Atom       -0.105205      0.139128     -0.033923
     4   Atom        0.012066     -0.005750     -0.006316
     5   Atom        0.005305     -0.000292     -0.005013
     6   Atom        0.003226      0.001839     -0.005065
     7   Atom       -0.044880     -0.015160      0.060040
     8   Atom       -0.142304      0.196152     -0.053849
     9   Atom        0.019559     -0.007300     -0.012259
    10   Atom        0.024742     -0.032098      0.007356
 --------------------------------------------------------
                        XY            XZ            YZ
 --------------------------------------------------------
     1   Atom       -0.008759     -0.001017      0.003948
     2   Atom       -0.051271      0.023315     -0.383841
     3   Atom        0.012287     -0.056057     -0.179317
     4   Atom       -0.005817     -0.000313     -0.003234
     5   Atom       -0.008158     -0.000140      0.002272
     6   Atom       -0.007115     -0.008770      0.003934
     7   Atom       -0.004267     -0.007845      0.015881
     8   Atom       -0.008866      0.004848     -0.173070
     9   Atom        0.005177     -0.006233     -0.002295
    10   Atom        0.002429     -0.001278      0.031539
 --------------------------------------------------------


 ---------------------------------------------------------------------------------
              Anisotropic Spin Dipole Couplings in Principal Axis System
 ---------------------------------------------------------------------------------

       Atom             a.u.   MegaHertz   Gauss  10(-4) cm-1        Axes

              Baa    -0.0099    -1.328    -0.474    -0.443 -0.2663 -0.6460  0.7154
     1 C(13)  Bbb    -0.0041    -0.547    -0.195    -0.182  0.4502  0.5729  0.6849
              Bcc     0.0140     1.874     0.669     0.625  0.8523 -0.5045 -0.1382
 
              Baa    -0.3049   -40.919   -14.601   -13.649  0.6742  0.3988  0.6216
     2 C(13)  Bbb    -0.2952   -39.607   -14.133   -13.211  0.7359 -0.2915 -0.6112
              Bcc     0.6001    80.526    28.734    26.861 -0.0625  0.8695 -0.4900
 
              Baa    -0.1728    12.503     4.461     4.170  0.5396  0.4036  0.7389
     3 O(17)  Bbb    -0.0834     6.038     2.154     2.014  0.8345 -0.3729 -0.4057
              Bcc     0.2562   -18.541    -6.616    -6.184  0.1118  0.8355 -0.5380
 
              Baa    -0.0101    -5.414    -1.932    -1.806  0.2028  0.7400  0.6413
     4 H(1)   Bbb    -0.0037    -1.958    -0.699    -0.653 -0.2092 -0.6070  0.7667
              Bcc     0.0138     7.372     2.631     2.459  0.9566 -0.2896  0.0317
 
              Baa    -0.0075    -3.979    -1.420    -1.327  0.4248  0.6750 -0.6032
     5 H(1)   Bbb    -0.0038    -2.029    -0.724    -0.677  0.4135  0.4481  0.7926
              Bcc     0.0113     6.007     2.144     2.004  0.8053 -0.5862 -0.0888
 
              Baa    -0.0106    -5.680    -2.027    -1.895  0.5529  0.0531  0.8315
     6 H(1)   Bbb    -0.0035    -1.864    -0.665    -0.622  0.4349  0.8328 -0.3424
              Bcc     0.0141     7.544     2.692     2.516  0.7107 -0.5510 -0.4374
 
              Baa    -0.0458   -24.436    -8.720    -8.151  0.9924  0.1085  0.0573
     7 H(1)   Bbb    -0.0181    -9.671    -3.451    -3.226 -0.0945  0.9737 -0.2073
              Bcc     0.0639    34.108    12.171    11.377 -0.0783  0.2003  0.9766
 
              Baa    -0.1427   -76.159   -27.175   -25.404  0.8186 -0.2441 -0.5199
     8 H(1)   Bbb    -0.1421   -75.840   -27.062   -25.298  0.5739  0.3849  0.7229
              Bcc     0.2849   151.999    54.237    50.702 -0.0236  0.8901 -0.4551
 
              Baa    -0.0137    -7.330    -2.615    -2.445  0.1450  0.2267  0.9631
     9 H(1)   Bbb    -0.0080    -4.292    -1.532    -1.432 -0.2225  0.9559 -0.1915
              Bcc     0.0218    11.622     4.147     3.877  0.9641  0.1865 -0.1891
 
              Baa    -0.0497   -26.503    -9.457    -8.840 -0.0368  0.8741 -0.4843
    10 H(1)   Bbb     0.0248    13.220     4.717     4.410 -0.6625  0.3415  0.6668
              Bcc     0.0249    13.283     4.740     4.431  0.7482  0.3454  0.5665
 

 ---------------------------------------------------------------------------------

 No NMR shielding tensors so no spin-rotation constants.
 Leave Link  601 at Thu Jan 24 17:02:46 2019, MaxMem=  134217728 cpu:       0.2
 (Enter /home/programs/G09_64/g09/l701.exe)
 Compute integral second derivatives.
 ... and contract with generalized density number  0.
 Leave Link  701 at Thu Jan 24 17:02:46 2019, MaxMem=  134217728 cpu:       0.2
 (Enter /home/programs/G09_64/g09/l702.exe)
 L702 exits ... SP integral derivatives will be done elsewhere.
 Leave Link  702 at Thu Jan 24 17:02:46 2019, MaxMem=  134217728 cpu:       0.0
 (Enter /home/programs/G09_64/g09/l703.exe)
 Compute integral second derivatives, UseDBF=F ICtDFT=           0.
 Integral derivatives from FoFDir, PRISM(SPDF).
 Calling FoFJK, ICntrl=    100147 FMM=F ISym2X=0 I1Cent= 0 IOpClX= 1 NMat=1 NMatS=1 NMatT=0.
 FoFCou: FMM=F IPFlag=           0 FMFlag=      100000 FMFlg1=         800
         NFxFlg=           0 DoJE=F BraDBF=F KetDBF=F FulRan=T
         Omega=  0.000000  0.000000  1.000000  0.000000  0.000000 ICntrl=  100147 IOpCl=  1
         NMat0=    1 NMatS0=    1 NMatT0=    0 NMatD0=    1 NMtDS0=    0 NMtDT0=    0
         I1Cent=           0 NGrid=           0.
 Symmetry not used in FoFCou.
 Leave Link  703 at Thu Jan 24 17:02:47 2019, MaxMem=  134217728 cpu:       0.2
 (Enter /home/programs/G09_64/g09/l716.exe)
 Dipole        =-1.02137058D-01 1.98667512D-01 4.15494910D-01
 Polarizability= 0.00000000D+00 0.00000000D+00 0.00000000D+00
                 0.00000000D+00 0.00000000D+00 0.00000000D+00
 -------------------------------------------------------------------
 Center     Atomic                   Forces (Hartrees/Bohr)
 Number     Number              X              Y              Z
 -------------------------------------------------------------------
      1        6           0.030322419   -0.015882178   -0.004834962
      2        6          -0.017886714    0.038153962    0.013447640
      3        8           0.011214986   -0.047032473   -0.032055625
      4        1           0.000338529   -0.000609247   -0.000264091
      5        1           0.001235794    0.000389574   -0.000714271
      6        1           0.000456908   -0.000263978    0.000272847
      7        1           0.003669069   -0.001305071    0.007435829
      8        1          -0.000562492    0.014234573   -0.008279289
      9        1          -0.029398497    0.023040840    0.018261288
     10        1           0.000609998   -0.010726002    0.006730634
 -------------------------------------------------------------------
 Cartesian Forces:  Max     0.047032473 RMS     0.017079567
 Force constants in Cartesian coordinates: 
                1             2             3             4             5 
      1  0.815392D+00
      2  0.262367D-01  0.829765D+00
      3  0.181441D-01  0.660264D-02  0.842283D+00
      4 -0.317603D+00  0.116552D+00  0.602012D-01  0.837240D+00
      5  0.951766D-01 -0.146124D+00 -0.421773D-01  0.301729D-01  0.405585D+00
      6  0.667633D-01 -0.504739D-01 -0.132671D+00 -0.166941D-01  0.254948D+00
      7 -0.435552D-01 -0.271439D-01 -0.142847D-01 -0.338187D+00 -0.188758D+00
      8  0.145492D-01  0.198047D-01  0.969924D-02 -0.127511D+00 -0.186875D+00
      9  0.805862D-02  0.115194D-01  0.106365D-01 -0.530778D-01 -0.991132D-01
     10 -0.290590D+00 -0.173771D+00 -0.818965D-01 -0.239726D-01 -0.268780D-01
     11 -0.174770D+00 -0.216897D+00 -0.656211D-01  0.180412D-01  0.155843D-01
     12 -0.828274D-01 -0.653932D-01 -0.110247D+00  0.102587D-01  0.959939D-02
     13 -0.799871D-01  0.373701D-01 -0.213712D-01 -0.627658D-02  0.399473D-01
     14  0.340344D-01 -0.376609D+00  0.149104D+00  0.251677D-02 -0.138809D-01
     15 -0.188201D-01  0.147386D+00 -0.153412D+00  0.234119D-02 -0.141604D-01
     16 -0.770187D-01 -0.303801D-03  0.155032D-01  0.521821D-03  0.703614D-02
     17  0.625522D-03 -0.849072D-01 -0.466665D-01  0.773735D-04 -0.364795D-02
     18  0.152332D-01 -0.471606D-01 -0.457240D+00 -0.771214D-03 -0.947518D-03
     19  0.100547D-02  0.500940D-02  0.399284D-01 -0.803826D-01  0.684411D-02
     20  0.227017D-02 -0.106499D-02 -0.197228D-01  0.542243D-02 -0.676116D-01
     21 -0.400936D-02  0.300846D-02 -0.156522D-03  0.385308D-01 -0.965712D-01
     22 -0.315637D-02  0.239290D-01 -0.118278D-01 -0.491862D-01 -0.235639D-02
     23  0.867400D-02 -0.302590D-01  0.153059D-01  0.679351D-02  0.157883D+00
     24 -0.146920D-02  0.325923D-02 -0.103222D-02 -0.166591D-02 -0.107144D+00
     25 -0.492706D-02 -0.749365D-02 -0.432597D-02 -0.305961D-01  0.335115D-01
     26 -0.262890D-02 -0.305903D-02 -0.286443D-02 -0.553139D-01  0.749183D-03
     27 -0.294920D-02 -0.368353D-02 -0.364734D-03 -0.378748D-01  0.365510D-02
     28  0.439724D-03 -0.385280D-03 -0.706615D-04  0.844224D-02  0.530354D-02
     29 -0.416767D-02  0.935039D-02 -0.365986D-02  0.324848D-02 -0.161663D+00
     30  0.187601D-02 -0.506477D-02  0.220417D-02 -0.124815D-02  0.919105D-01
                6             7             8             9            10 
      6  0.726388D+00
      7 -0.132475D+00  0.964683D+00
      8 -0.130309D+00 -0.345564D-01  0.341574D+00
      9 -0.122585D+00 -0.102254D+00  0.254938D+00  0.199807D+00
     10 -0.156492D-01 -0.438396D-02  0.538426D-02  0.393626D-02  0.303287D+00
     11  0.854564D-02  0.422420D-02 -0.281893D-02 -0.239661D-02  0.182958D+00
     12  0.411477D-02  0.255451D-02 -0.196977D-02 -0.483832D-03  0.869116D-01
     13 -0.182210D-01  0.255141D-02 -0.217111D-02  0.489242D-03  0.810188D-02
     14  0.649077D-02 -0.105643D-02  0.147678D-02 -0.205334D-03  0.899000D-02
     15  0.697897D-02 -0.333733D-03  0.528102D-03  0.570186D-04  0.209700D-02
     16  0.456863D-01  0.310897D-02 -0.471274D-03 -0.160214D-02  0.569039D-02
     17 -0.212116D-01 -0.121210D-02  0.313995D-03  0.100105D-02  0.544956D-02
     18 -0.409082D-02 -0.954491D-03  0.319642D-03  0.640141D-03  0.517654D-02
     19  0.391240D-01 -0.434415D-02 -0.171262D-01 -0.409104D-01  0.227651D-02
     20 -0.785378D-01 -0.729080D-02 -0.793318D-02 -0.338609D-01 -0.331166D-03
     21 -0.425348D+00 -0.499559D-02 -0.737778D-02 -0.101865D-01  0.129609D-03
     22  0.410848D-02 -0.588522D-02 -0.260992D-01  0.444619D-02  0.104819D-02
     23 -0.786293D-01 -0.304628D-01 -0.530774D-01 -0.117415D-02 -0.128348D-02
     24 -0.162062D-01  0.849281D-02  0.660095D-02  0.908842D-02  0.211703D-03
     25  0.294451D-01 -0.574231D+00  0.187472D+00  0.180934D+00 -0.165849D-02
     26  0.109489D-01  0.277722D+00 -0.127066D+00 -0.131408D+00 -0.936306D-03
     27 -0.284763D-02  0.248493D+00 -0.125053D+00 -0.866487D-01 -0.734898D-03
     28 -0.208812D-02  0.243235D-03  0.529438D-03 -0.202774D-04  0.201386D-03
     29  0.782281D-01  0.853383D-02  0.146012D-01  0.699301D-03  0.418228D-03
     30 -0.337332D-01 -0.424244D-02 -0.737660D-02 -0.325252D-03 -0.182072D-03
               11            12            13            14            15 
     11  0.218115D+00
     12  0.709223D-01  0.101968D+00
     13 -0.304533D-01  0.189498D-01  0.768896D-01
     14 -0.152024D-01  0.131726D-01 -0.429592D-01  0.390930D+00
     15 -0.161750D-01  0.741258D-02  0.184876D-01 -0.158595D+00  0.148376D+00
     16 -0.506644D-03 -0.356721D-01 -0.552581D-05 -0.152726D-02 -0.483251D-02
     17 -0.838499D-03 -0.272645D-01 -0.219337D-02  0.110159D-01  0.425894D-01
     18  0.386862D-02 -0.397601D-02  0.878823D-03 -0.897691D-02 -0.108692D-01
     19 -0.497543D-03 -0.679009D-03  0.163138D-02 -0.959045D-03 -0.818817D-03
     20  0.263933D-03  0.664803D-03 -0.187575D-02  0.135686D-02  0.241759D-03
     21  0.182826D-03  0.465527D-03 -0.188651D-03 -0.148799D-03  0.708197D-03
     22  0.171768D-04 -0.160802D-03 -0.382965D-02  0.150103D-02  0.192522D-02
     23  0.664649D-03  0.955424D-04  0.300198D-02  0.111776D-02 -0.234169D-02
     24  0.228599D-03 -0.390310D-04  0.594950D-03 -0.970911D-03  0.123435D-02
     25  0.118182D-02  0.570206D-03  0.757903D-03 -0.311003D-03 -0.457975D-04
     26  0.991191D-03  0.339769D-03 -0.477123D-04 -0.101247D-04 -0.671878D-04
     27  0.564227D-03  0.725776D-03  0.871012D-04 -0.586364D-04 -0.724332D-04
     28 -0.194850D-03  0.945372D-04  0.166622D-03 -0.229270D-03  0.000000D+00
     29  0.138593D-03 -0.166885D-03 -0.619015D-03 -0.194674D-03  0.593438D-03
     30 -0.119530D-03  0.600263D-04  0.293358D-03  0.187846D-03 -0.413153D-03
               16            17            18            19            20 
     16  0.727115D-01
     17 -0.547533D-02  0.773312D-01
     18 -0.189209D-01  0.521490D-01  0.473931D+00
     19 -0.688613D-02  0.378036D-02  0.656282D-04  0.799856D-01
     20  0.275906D-02 -0.201301D-03  0.971855D-04 -0.168760D-02  0.803909D-01
     21 -0.303319D-04 -0.150746D-03  0.948315D-03 -0.320861D-01  0.989232D-01
     22  0.949495D-03 -0.616370D-03 -0.321563D-03  0.209638D-02 -0.145266D-02
     23 -0.190617D-02  0.101965D-02  0.106409D-02  0.566704D-02 -0.147878D-01
     24  0.374539D-03 -0.674149D-03  0.275286D-03 -0.434643D-02  0.352573D-01
     25  0.894231D-03 -0.276231D-03 -0.377080D-03  0.471365D-02  0.245839D-02
     26 -0.395022D-05 -0.117249D-03  0.187801D-04  0.873318D-03  0.105699D-02
     27 -0.136498D-03 -0.496996D-05  0.139677D-03 -0.124283D-02  0.203529D-02
     28  0.340029D-04 -0.159429D-03 -0.895923D-05 -0.961138D-04 -0.272072D-03
     29  0.399228D-03  0.314380D-04 -0.432185D-03 -0.190386D-02  0.853024D-02
     30 -0.369584D-03  0.233066D-03  0.242238D-03  0.965483D-03 -0.509808D-02
               21            22            23            24            25 
     21  0.442487D+00
     22  0.200913D-02  0.839809D-01
     23  0.526081D-02  0.102081D-01 -0.172829D+00
     24 -0.148027D-01 -0.337945D-02  0.134726D+00  0.100961D-01
     25  0.636002D-03  0.139980D-02  0.422422D-02 -0.123938D-02  0.603479D+00
     26  0.104654D-02 -0.603541D-03  0.215845D-02 -0.762708D-03 -0.219319D+00
     27  0.270359D-02  0.889350D-03  0.197328D-03  0.667433D-04 -0.206386D+00
     28  0.450140D-05 -0.274173D-01 -0.491642D-02  0.242636D-02  0.168060D-03
     29 -0.417336D-02 -0.452714D-02  0.108110D+00 -0.705203D-01 -0.144874D-02
     30  0.318150D-02  0.231128D-02 -0.745040D-01  0.113193D-01  0.788764D-03
               26            27            28            29            30 
     26  0.125543D+00
     27  0.122498D+00  0.863648D-01
     28  0.257687D-03 -0.144645D-03  0.178182D-01
     29 -0.245618D-03 -0.149815D-03  0.666570D-04  0.213414D-01
     30  0.250007D-03 -0.670050D-04 -0.192653D-03 -0.418446D-03  0.175314D-01
 Force constants in internal coordinates: 
                1             2             3             4             5 
      1  0.484929D+00
      2 -0.115265D-02  0.481683D+00
      3  0.251265D-02 -0.466801D-02  0.474785D+00
      4  0.102628D-03 -0.478988D-02 -0.445294D-02  0.481598D+00
      5  0.159909D-01 -0.113890D-02 -0.438864D-03 -0.744545D-03  0.606608D+00
      6 -0.217360D-02  0.243384D-03  0.328897D-04 -0.797751D-03  0.114159D-01
      7  0.730658D-02 -0.234276D-03 -0.166871D-02 -0.558537D-03  0.331202D-01
      8 -0.882282D-03  0.319870D-03 -0.299858D-03 -0.442593D-03 -0.286735D-01
      9 -0.697095D-02  0.396166D-03  0.459429D-03  0.526060D-03 -0.150436D-01
     10  0.174103D-01  0.268041D-02 -0.512668D-02 -0.488059D-02  0.532914D-02
     11  0.169928D-01 -0.520062D-02  0.196977D-02 -0.494044D-02 -0.226890D-02
     12  0.171671D-01 -0.523055D-02 -0.530003D-02  0.212335D-02 -0.379085D-02
     13 -0.179180D-01  0.400585D-02  0.435973D-02 -0.720494D-04 -0.684312D-03
     14 -0.172493D-01  0.394110D-02 -0.104320D-03  0.392327D-02 -0.346369D-03
     15 -0.181542D-01  0.456675D-04  0.447096D-02  0.414308D-02  0.176395D-02
     16  0.191256D-01  0.419501D-02 -0.270646D-02 -0.318269D-02  0.162558D-01
     17  0.932959D-02 -0.240394D-02 -0.693823D-03  0.244308D-02 -0.223240D-01
     18  0.576194D-02 -0.170787D-02  0.198098D-02 -0.655250D-03 -0.161839D-01
     19 -0.169855D-01 -0.774215D-03  0.121437D-02  0.686125D-03  0.131733D-01
     20 -0.123974D-01 -0.426331D-03  0.678125D-03  0.913556D-03  0.838658D-02
     21 -0.710135D-02  0.746627D-03 -0.243691D-04 -0.407738D-04 -0.160282D-02
     22  0.441695D-02  0.367299D-03 -0.301775D-03 -0.272735D-03  0.757214D-01
     23 -0.195339D-02 -0.123485D-03 -0.480685D-03 -0.114394D-03  0.146128D-02
     24 -0.372501D-03  0.403031D-04  0.209917D-04 -0.175912D-04 -0.126165D-02
     25 -0.923345D-03  0.406220D-04 -0.272144D-02  0.276544D-02 -0.177057D-02
     26  0.871607D-03  0.677028D-03 -0.409930D-02  0.296619D-02  0.120315D-01
     27  0.458203D-03 -0.660062D-03 -0.326132D-02  0.372892D-02 -0.108843D-01
     28 -0.904518D-03  0.343100D-02  0.655243D-03 -0.372986D-02 -0.610017D-03
     29  0.890435D-03  0.406740D-02 -0.722612D-03 -0.352910D-02  0.131921D-01
     30  0.477031D-03  0.273031D-02  0.115363D-03 -0.276638D-02 -0.972379D-02
     31 -0.155560D-02 -0.322182D-02  0.405936D-02 -0.353759D-03 -0.231489D-02
     32  0.239348D-03 -0.258541D-02  0.268150D-02 -0.153003D-03  0.114872D-01
     33 -0.174056D-03 -0.392250D-02  0.351948D-02  0.609721D-03 -0.114287D-01
     34  0.205628D-02 -0.963288D-04 -0.123484D-02  0.111930D-02  0.502013D-03
     35 -0.132815D-01  0.176685D-03  0.109775D-02 -0.377070D-04  0.561815D-02
     36  0.125224D-01 -0.424887D-04  0.325665D-04 -0.934122D-03 -0.493544D-02
                6             7             8             9            10 
      6  0.470247D+00
      7  0.973773D-03  0.703928D-01
      8  0.823850D-03 -0.156570D-02  0.770884D+00
      9 -0.247093D-02  0.167922D+00  0.127700D-02  0.208103D-01
     10 -0.931745D-03 -0.166788D-02  0.178612D-02  0.433770D-03  0.144460D+00
     11 -0.191730D-02  0.443465D-02 -0.984565D-03 -0.149463D-02 -0.254260D-01
     12  0.267079D-02 -0.299950D-02 -0.128058D-02  0.863994D-03 -0.254748D-01
     13  0.654930D-03 -0.629237D-03 -0.183574D-03  0.382970D-03 -0.573509D-01
     14 -0.348963D-03  0.120789D-02  0.866502D-05 -0.507588D-03 -0.561195D-01
     15 -0.115101D-03 -0.336415D-03  0.663091D-03  0.326603D-03  0.163121D-01
     16 -0.487754D-02 -0.106987D-01  0.107697D-01  0.693632D-02  0.283984D-01
     17  0.345445D-02 -0.957402D-02 -0.194019D-03  0.517146D-02 -0.130465D-01
     18 -0.275716D-02  0.611376D-02 -0.103191D-02 -0.519318D-02 -0.863208D-02
     19  0.413735D-02  0.307348D-02 -0.747914D-02 -0.168338D-02 -0.776713D-02
     20  0.690886D-05  0.761185D-02 -0.375530D-02 -0.437842D-02 -0.616698D-02
     21 -0.223500D-03  0.653522D-02  0.822215D-03 -0.275079D-02  0.466588D-02
     22 -0.506526D-02 -0.492269D-02  0.273396D-01  0.200694D-02  0.737754D-02
     23  0.797673D-03 -0.426903D-03  0.890703D-04  0.572556D-03 -0.391496D-03
     24  0.661364D-03  0.804689D-03 -0.387284D-04  0.109485D-02  0.312220D-03
     25 -0.229358D-02  0.621253D-02  0.511790D-03 -0.428263D-02 -0.346604D-03
     26  0.210489D-02 -0.767332D-02 -0.331148D-03  0.424476D-02  0.324225D-02
     27  0.186338D-02 -0.799829D-03 -0.665151D-04  0.315699D-03 -0.288409D-02
     28 -0.332954D-02  0.721288D-02  0.812498D-03 -0.449003D-02  0.599422D-02
     29  0.106894D-02 -0.667296D-02 -0.304398D-04  0.403736D-02  0.958307D-02
     30  0.827429D-03  0.200522D-03  0.234193D-03  0.108304D-03  0.345673D-02
     31 -0.297214D-02  0.769056D-02  0.180813D-03 -0.448034D-02 -0.641810D-02
     32  0.142633D-02 -0.619529D-02 -0.662125D-03  0.404705D-02 -0.282925D-02
     33  0.118482D-02  0.678200D-03 -0.397492D-03  0.117992D-03 -0.895559D-02
     34  0.227926D-02 -0.815401D-02 -0.494151D-03  0.562251D-02 -0.300676D-03
     35 -0.177803D-02  0.121010D-01 -0.334817D-02 -0.633408D-02 -0.753887D-03
     36 -0.381239D-02 -0.230846D-02  0.212955D-02  0.673541D-03  0.167072D-02
               11            12            13            14            15 
     11  0.145198D+00
     12 -0.258858D-01  0.146215D+00
     13 -0.565210D-01  0.164228D-01  0.730962D-01
     14  0.161673D-01 -0.563959D-01  0.139266D-01  0.719042D-01
     15 -0.565013D-01 -0.579015D-01  0.137201D-01  0.139837D-01  0.735430D-01
     16 -0.114406D-01 -0.165590D-01 -0.545059D-02 -0.358379D-02  0.851429D-02
     17 -0.440073D-02  0.208427D-01  0.492564D-02 -0.271981D-02 -0.565318D-02
     18  0.139118D-01 -0.374968D-02 -0.170375D-02  0.344741D-02 -0.329885D-02
     19  0.664019D-02 -0.188265D-02  0.998709D-03  0.303227D-02 -0.898842D-03
     20 -0.488246D-03  0.542068D-02  0.196725D-02  0.587156D-03 -0.125228D-02
     21 -0.235220D-02 -0.344285D-02 -0.532149D-03 -0.149263D-03  0.182964D-02
     22 -0.212904D-02 -0.212531D-02 -0.212319D-02 -0.206989D-02  0.939997D-03
     23 -0.976707D-04 -0.423674D-03  0.369405D-03  0.181971D-03  0.391671D-03
     24  0.987902D-04 -0.309546D-03 -0.153492D-03 -0.134612D-04  0.608913D-04
     25 -0.380319D-02  0.433231D-02 -0.966069D-02  0.975008D-02 -0.192428D-03
     26 -0.879638D-02  0.484948D-02 -0.891298D-02  0.834739D-02  0.136559D-02
     27 -0.530925D-02  0.874755D-02 -0.815224D-02  0.892599D-02 -0.125077D-02
     28  0.311997D-02 -0.861491D-02  0.753194D-02  0.920067D-03 -0.903608D-02
     29 -0.187322D-02 -0.809774D-02  0.827965D-02 -0.482620D-03 -0.747806D-02
     30  0.161392D-02 -0.419967D-02  0.904039D-02  0.959824D-04 -0.100944D-01
     31  0.884812D-02 -0.276797D-02 -0.904919D-03 -0.778479D-02  0.902358D-02
     32  0.385493D-02 -0.225080D-02 -0.157208D-03 -0.918747D-02  0.105816D-01
     33  0.734207D-02  0.164726D-02  0.603526D-03 -0.860887D-02  0.796524D-02
     34 -0.702738D-02  0.777916D-02  0.232150D-02 -0.242811D-02 -0.353306D-03
     35  0.356780D-02 -0.483471D-02 -0.541009D-03  0.193244D-02  0.694807D-03
     36  0.305045D-02 -0.292209D-02 -0.166107D-02  0.641175D-04 -0.269985D-03
               16            17            18            19            20 
     16  0.172614D+00
     17 -0.505860D-01  0.972751D-01
     18 -0.350169D-01 -0.785706D-02  0.692090D-01
     19 -0.774202D-01 -0.371666D-01  0.247919D-01  0.915420D-01
     20 -0.504277D-01  0.229043D-01 -0.244169D-01  0.100963D-01  0.517112D-01
     21  0.263988D-01 -0.219923D-01 -0.225102D-01 -0.652434D-02 -0.461880D-02
     22  0.311790D-01 -0.617532D-02 -0.551934D-02 -0.163987D-01 -0.957960D-02
     23 -0.224614D-03 -0.130260D-03 -0.225944D-02  0.000000D+00  0.186836D-02
     24  0.154808D-03 -0.135183D-03  0.127860D-02  0.157686D-04 -0.162062D-02
     25  0.153699D-02  0.524993D-02 -0.259923D-02 -0.141313D-01  0.116049D-01
     26  0.606097D-02 -0.786019D-02 -0.665508D-02  0.112158D-01 -0.203775D-03
     27 -0.861456D-02  0.908268D-02  0.461760D-02  0.587254D-04 -0.934387D-02
     28  0.588647D-02  0.102227D-04 -0.134965D-02 -0.136563D-01  0.971022D-02
     29  0.104104D-01 -0.130999D-01 -0.540550D-02  0.116908D-01 -0.209842D-02
     30 -0.426508D-02  0.384297D-02  0.586718D-02  0.533719D-03 -0.112385D-01
     31 -0.153088D-02  0.362991D-02  0.101357D-02 -0.117463D-01  0.113431D-01
     32  0.299310D-02 -0.948021D-02 -0.304228D-02  0.136008D-01 -0.465550D-03
     33 -0.116824D-01  0.746266D-02  0.823040D-02  0.244371D-02 -0.960565D-02
     34 -0.208754D-02  0.274284D-01 -0.240193D-01 -0.111977D-01  0.716455D-02
     35 -0.185835D-01 -0.306153D-01 -0.331165D-02  0.302045D-01  0.115556D-01
     36  0.233687D-01  0.284035D-02  0.255103D-01 -0.190168D-01 -0.203554D-01
               21            22            23            24            25 
     21  0.279995D-01
     22  0.387712D-02  0.279887D+00
     23  0.807021D-03  0.467290D-03  0.380404D-01
     24  0.286897D-03 -0.183997D-03  0.143054D-02  0.159689D-01
     25 -0.220472D-03  0.593585D-03  0.234740D-03 -0.362077D-03  0.189822D-01
     26 -0.457873D-02  0.615484D-03 -0.865269D-04 -0.317017D-03  0.510619D-02
     27  0.452181D-02 -0.114764D-02 -0.559478D-03  0.744227D-03  0.585623D-02
     28  0.641976D-03  0.138618D-02  0.377118D-03 -0.285485D-03  0.419715D-02
     29 -0.371628D-02  0.140808D-02  0.558515D-04 -0.240426D-03 -0.967886D-02
     30  0.538426D-02 -0.355050D-03 -0.417100D-03  0.820818D-03 -0.892882D-02
     31 -0.809246D-03 -0.178872D-03  0.528739D-03 -0.346604D-03  0.432635D-02
     32 -0.516751D-02 -0.156973D-03  0.207472D-03 -0.301544D-03 -0.954966D-02
     33  0.393304D-02 -0.192010D-02 -0.265479D-03  0.759700D-03 -0.879962D-02
     34  0.969913D-03  0.101290D-02  0.297989D-03 -0.570009D-04 -0.323964D-02
     35  0.137034D-01 -0.399551D-02  0.681428D-03 -0.207246D-04  0.371095D-03
     36 -0.140713D-01  0.630796D-02 -0.145968D-02  0.620480D-03  0.134067D-02
               26            27            28            29            30 
     26  0.195372D-01
     27  0.603914D-02  0.188290D-01
     28 -0.963556D-02 -0.968141D-02  0.195738D-01
     29  0.479548D-02 -0.949850D-02  0.574109D-02  0.202154D-01
     30 -0.870261D-02  0.329139D-02  0.569524D-02  0.592145D-02  0.179155D-01
     31 -0.104244D-01 -0.897901D-02  0.473690D-02 -0.100138D-01 -0.856846D-02
     32  0.400664D-02 -0.879610D-02 -0.909581D-02  0.446049D-02 -0.834225D-02
     33 -0.949145D-02  0.399379D-02 -0.914166D-02 -0.983348D-02  0.365175D-02
     34  0.320017D-02  0.329314D-02 -0.509570D-02  0.134412D-02  0.143708D-02
     35 -0.103036D-02 -0.171758D-02  0.151750D-02  0.116040D-03 -0.571181D-03
     36 -0.154660D-02 -0.151162D-02  0.233760D-02 -0.549666D-03 -0.514683D-03
               31            32            33            34            35 
     31  0.198524D-01
     32  0.510161D-02  0.186579D-01
     33  0.654699D-02  0.585517D-02  0.193404D-01
     34 -0.500027D-02  0.143955D-02  0.153252D-02  0.196980D-01
     35  0.153886D-02  0.137407D-03 -0.549814D-03 -0.694196D-02  0.260890D-01
     36  0.206266D-02 -0.824610D-03 -0.789626D-03 -0.631959D-02 -0.146333D-01
               36 
     36  0.257456D-01
 Leave Link  716 at Thu Jan 24 17:02:47 2019, MaxMem=  134217728 cpu:       0.0
 (Enter /home/programs/G09_64/g09/l103.exe)

 GradGradGradGradGradGradGradGradGradGradGradGradGradGradGradGradGradGrad
 Berny optimization.
 Red2BG is reusing G-inverse.
 Internal  Forces:  Max     0.040093175 RMS     0.011343786
 Search for a saddle point.
 Step number   1 out of a maximum of   46
 All quantities printed in internal units (Hartrees-Bohrs-Radians)
 Swaping is turned off.
 Second derivative matrix not updated -- analytic derivatives used.
 ITU=  0
     Eigenvalues ---   -0.13107   0.00185   0.00515   0.01576   0.03797
     Eigenvalues ---    0.05379   0.06236   0.06618   0.06900   0.11177
     Eigenvalues ---    0.15209   0.18455   0.18818   0.21221   0.22054
     Eigenvalues ---    0.24110   0.30296   0.46961   0.47001   0.48256
     Eigenvalues ---    0.48711   0.49490   0.62963   0.77679
 Eigenvectors required to have negative eigenvalues:
                          R9        R7        D11       R5        D2
   1                    0.74194  -0.64973   0.05946   0.04789  -0.04606
                          D10       D7        D4        D5        A8
   1                   -0.04411   0.04404   0.04378  -0.04333  -0.04322
 RFO step:  Lambda0=5.382061811D-04 Lambda=-1.01699005D-02.
 Linear search not attempted -- option 19 set.
 Iteration  1 RMS(Cart)=  0.03259755 RMS(Int)=  0.00152526
 Iteration  2 RMS(Cart)=  0.00161600 RMS(Int)=  0.00037577
 Iteration  3 RMS(Cart)=  0.00000264 RMS(Int)=  0.00037576
 Iteration  4 RMS(Cart)=  0.00000000 RMS(Int)=  0.00037576
 Variable       Old X    -DE/DX   Delta X   Delta X   Delta X     New X
                                 (Linear)    (Quad)   (Total)
    R1        2.81604   0.03646   0.00000   0.07727   0.07727   2.89331
    R2        2.05170  -0.00018   0.00000  -0.00004  -0.00004   2.05167
    R3        2.05600  -0.00051   0.00000  -0.00230  -0.00230   2.05370
    R4        2.05204  -0.00021   0.00000  -0.00030  -0.00030   2.05173
    R5        2.61072   0.03182   0.00000   0.06728   0.06728   2.67800
    R6        2.05955   0.00656   0.00000   0.01312   0.01312   2.07267
    R7        2.44709   0.00384   0.00000  -0.05291  -0.05291   2.39417
    R8        1.80823   0.04009   0.00000   0.05734   0.05734   1.86557
    R9        1.85005  -0.01265   0.00000   0.00761   0.00761   1.85766
    A1        1.92493   0.00057   0.00000  -0.00261  -0.00261   1.92232
    A2        1.93334   0.00174   0.00000  -0.00304  -0.00304   1.93029
    A3        1.92267   0.00031   0.00000   0.00162   0.00162   1.92429
    A4        1.89554  -0.00115   0.00000   0.00091   0.00090   1.89645
    A5        1.89700  -0.00058   0.00000   0.00094   0.00094   1.89794
    A6        1.88948  -0.00098   0.00000   0.00233   0.00233   1.89181
    A7        1.93448  -0.00062   0.00000  -0.01202  -0.01286   1.92161
    A8        2.00027  -0.00537   0.00000  -0.04649  -0.04709   1.95318
    A9        1.84964   0.00147   0.00000   0.02191   0.02221   1.87185
   A10        1.97915   0.00274   0.00000  -0.00547  -0.00700   1.97215
   A11        1.89863   0.00103   0.00000   0.01814   0.01814   1.91677
   A12        1.78850   0.00119   0.00000   0.03415   0.03461   1.82310
   A13        1.91734  -0.01988   0.00000  -0.09229  -0.09229   1.82504
   A14        3.13010   0.00034   0.00000   0.00565   0.00565   3.13575
   A15        3.08787   0.00096   0.00000   0.04004   0.04004   3.12791
    D1        3.06290   0.00095   0.00000   0.02767   0.02728   3.09018
    D2       -0.95285  -0.00048   0.00000  -0.03193  -0.03140  -0.98425
    D3        1.00583  -0.00080   0.00000  -0.00039  -0.00053   1.00529
    D4       -1.12120   0.00102   0.00000   0.02513   0.02474  -1.09646
    D5        1.14624  -0.00042   0.00000  -0.03447  -0.03394   1.11230
    D6        3.10492  -0.00074   0.00000  -0.00293  -0.00307   3.10185
    D7        0.96886   0.00111   0.00000   0.02713   0.02674   0.99560
    D8       -3.04689  -0.00032   0.00000  -0.03247  -0.03193  -3.07882
    D9       -1.08821  -0.00065   0.00000  -0.00093  -0.00107  -1.08928
   D10        3.04699  -0.00226   0.00000  -0.00282  -0.00282   3.04417
   D11        0.76844   0.00339   0.00000   0.07757   0.07766   0.84611
   D12       -1.20921  -0.00022   0.00000   0.02762   0.02754  -1.18168
         Item               Value     Threshold  Converged?
 Maximum Force            0.040093     0.000450     NO 
 RMS     Force            0.011344     0.000300     NO 
 Maximum Displacement     0.091144     0.001800     NO 
 RMS     Displacement     0.032474     0.001200     NO 
 Predicted change in Energy=-5.015073D-03
 GradGradGradGradGradGradGradGradGradGradGradGradGradGradGradGradGradGrad

 Leave Link  103 at Thu Jan 24 17:02:47 2019, MaxMem=  134217728 cpu:       0.0
 (Enter /home/programs/G09_64/g09/l202.exe)
                          Input orientation:                          
 ---------------------------------------------------------------------
 Center     Atomic      Atomic             Coordinates (Angstroms)
 Number     Number       Type             X           Y           Z
 ---------------------------------------------------------------------
      1          6           0        1.294820   -0.213234   -0.075865
      2          6           0       -0.052445    0.418955    0.283860
      3          8           0       -1.113229   -0.394752   -0.186139
      4          1           0        2.107484    0.434729    0.237908
      5          1           0        1.408545   -1.176134    0.415013
      6          1           0        1.364168   -0.365291   -1.148655
      7          1           0       -0.126431    0.642946    1.355004
      8          1           0       -0.098089    1.552495   -0.280186
      9          1           0       -1.929856    0.034331    0.165433
     10          1           0       -0.131936    2.427416   -0.727091
 ---------------------------------------------------------------------
                    Distance matrix (angstroms):
                    1          2          3          4          5
     1  C    0.000000
     2  C    1.531075   0.000000
     3  O    2.417396   1.417138   0.000000
     4  H    1.085695   2.160476   3.352737   0.000000
     5  H    1.086771   2.167027   2.707635   1.764869   0.000000
     6  H    1.085729   2.161928   2.657969   1.764967   1.761957
     7  H    2.190978   1.096812   2.103737   2.506319   2.559060
     8  H    2.258261   1.266943   2.197983   2.526336   3.193535
     9  H    3.243154   1.920060   0.987216   4.057793   3.559837
    10  H    3.071280   2.249945   3.036478   3.149131   4.082041
                    6          7          8          9         10
     6  H    0.000000
     7  H    3.083299   0.000000
     8  H    2.563267   1.871345   0.000000
     9  H    3.568910   2.244512   2.420490   0.000000
    10  H    3.196131   2.742167   0.983034   3.123455   0.000000
 Symmetry turned off by external request.
 Stoichiometry    C2H7O(2)
 Framework group  C1[X(C2H7O)]
 Deg. of freedom    24
 Full point group                 C1      NOp   1
 Rotational constants (GHZ):     23.8543556      8.7710975      7.4318112
 Leave Link  202 at Thu Jan 24 17:02:47 2019, MaxMem=  134217728 cpu:       0.0
 (Enter /home/programs/G09_64/g09/l301.exe)
 Standard basis: STO-3G (5D, 7F)
 Ernie: Thresh=  0.10000D-02 Tol=  0.10000D-05 Strict=F.
 Integral buffers will be    131072 words long.
 Raffenetti 2 integral format.
 Two-electron integral symmetry is turned off.
    22 basis functions,    66 primitive gaussians,    22 cartesian basis functions
    14 alpha electrons       13 beta electrons
       nuclear repulsion energy        86.0204132422 Hartrees.
 IExCor=    0 DFT=F Ex=HF Corr=None ExCW=0 ScaHFX=  1.000000
 ScaDFX=  1.000000  1.000000  1.000000  1.000000 ScalE2=  1.000000  1.000000
 IRadAn=      0 IRanWt=     -1 IRanGd=            0 ICorTp=0
 NAtoms=   10 NActive=   10 NUniq=   10 SFac= 1.00D+00 NAtFMM=   50 NAOKFM=F Big=F
 Leave Link  301 at Thu Jan 24 17:02:47 2019, MaxMem=  134217728 cpu:       0.1
 (Enter /home/programs/G09_64/g09/l302.exe)
 NPDir=0 NMtPBC=     1 NCelOv=     1 NCel=       1 NClECP=     1 NCelD=      1
         NCelK=      1 NCelE2=     1 NClLst=     1 CellRange=     0.0.
 One-electron integrals computed using PRISM.
 NBasis=    22 RedAO= T  NBF=    22
 NBsUse=    22 1.00D-06 NBFU=    22
 Leave Link  302 at Thu Jan 24 17:02:47 2019, MaxMem=  134217728 cpu:       0.1
 (Enter /home/programs/G09_64/g09/l303.exe)
 DipDrv:  MaxL=1.
 Leave Link  303 at Thu Jan 24 17:02:47 2019, MaxMem=  134217728 cpu:       0.0
 (Enter /home/programs/G09_64/g09/l401.exe)
 Initial guess read from the read-write file.
 B after Tr=     0.000000    0.000000    0.000000
         Rot=    1.000000    0.000000    0.000000    0.000000 Ang=   0.00 deg.
 Guess basis will be translated and rotated to current coordinates.
 Initial guess <Sx>= 0.0000 <Sy>= 0.0000 <Sz>= 0.5000 <S**2>= 0.7878 S= 0.5187
 Generating alternative initial guess.
 Harris functional with IExCor=  205 diagonalized for initial guess.
 ExpMin= 1.69D-01 ExpMax= 1.31D+02 ExpMxC= 1.31D+02 IAcc=1 IRadAn=         1 AccDes= 0.00D+00
 HarFok:  IExCor=  205 AccDes= 0.00D+00 IRadAn=         1 IDoV= 1
 ScaDFX=  1.000000  1.000000  1.000000  1.000000
 FoFCou: FMM=F IPFlag=           0 FMFlag=      100000 FMFlg1=           0
         NFxFlg=           0 DoJE=T BraDBF=F KetDBF=T FulRan=T
         Omega=  0.000000  0.000000  1.000000  0.000000  0.000000 ICntrl=     500 IOpCl=  0
         NMat0=    1 NMatS0=    1 NMatT0=    0 NMatD0=    1 NMtDS0=    0 NMtDT0=    0
         I1Cent=           4 NGrid=           0.
 Symmetry not used in FoFCou.
 Harris En= -152.800409126343    
 Leave Link  401 at Thu Jan 24 17:02:47 2019, MaxMem=  134217728 cpu:       0.3
 (Enter /home/programs/G09_64/g09/l502.exe)
 UHF open shell SCF:
 Requested convergence on RMS density matrix=1.00D-08 within 128 cycles.
 Requested convergence on MAX density matrix=1.00D-06.
 Requested convergence on             energy=1.00D-06.
 No special actions if energy rises.
 Using DIIS extrapolation, IDIIS=  1040.
 Two-electron integral symmetry not used.
 Keep R1 and R2 ints in memory in canonical form, NReq=884165.
 IEnd=       19882 IEndB=       19882 NGot=   134217728 MDV=   134150703
 LenX=   134150703 LenY=   134149778
 Symmetry not used in FoFDir.
 MinBra= 0 MaxBra= 1 Meth= 1.
 IRaf=       0 NMat=   1 IRICut=       1 DoRegI=T DoRafI=F ISym2E= 0 JSym2E=0.

 Cycle   1  Pass 1  IDiag  1:
 E= -152.568317427675    
 DIIS: error= 5.96D-03 at cycle   1 NSaved=   1.
 NSaved= 1 IEnMin= 1 EnMin= -152.568317427675     IErMin= 1 ErrMin= 5.96D-03
 ErrMax= 5.96D-03 EMaxC= 1.00D-01 BMatC= 3.56D-03 BMatP= 3.56D-03
 IDIUse=3 WtCom= 9.40D-01 WtEn= 5.96D-02
 Coeff-Com:  0.100D+01
 Coeff-En:   0.100D+01
 Coeff:      0.100D+01
 Gap=     0.829 Goal=   None    Shift=    0.000
 Gap=     0.600 Goal=   None    Shift=    0.000
 GapD=    0.600 DampG=2.000 DampE=1.000 DampFc=2.0000 IDamp=-1.
 RMSDP=2.53D-03 MaxDP=1.46D-02              OVMax= 0.00D+00

 Cycle   2  Pass 1  IDiag  1:
 E= -152.570251280053     Delta-E=       -0.001933852378 Rises=F Damp=F
 DIIS: error= 1.83D-03 at cycle   2 NSaved=   2.
 NSaved= 2 IEnMin= 2 EnMin= -152.570251280053     IErMin= 2 ErrMin= 1.83D-03
 ErrMax= 1.83D-03 EMaxC= 1.00D-01 BMatC= 4.75D-04 BMatP= 3.56D-03
 IDIUse=3 WtCom= 9.82D-01 WtEn= 1.83D-02
 Coeff-Com: -0.337D+00 0.134D+01
 Coeff-En:   0.000D+00 0.100D+01
 Coeff:     -0.331D+00 0.133D+01
 Gap=     0.830 Goal=   None    Shift=    0.000
 Gap=     0.608 Goal=   None    Shift=    0.000
 RMSDP=1.38D-03 MaxDP=8.08D-03 DE=-1.93D-03 OVMax= 0.00D+00

 Cycle   3  Pass 1  IDiag  1:
 E= -152.570655174214     Delta-E=       -0.000403894161 Rises=F Damp=F
 DIIS: error= 7.61D-04 at cycle   3 NSaved=   3.
 NSaved= 3 IEnMin= 3 EnMin= -152.570655174214     IErMin= 3 ErrMin= 7.61D-04
 ErrMax= 7.61D-04 EMaxC= 1.00D-01 BMatC= 5.33D-05 BMatP= 4.75D-04
 IDIUse=3 WtCom= 9.92D-01 WtEn= 7.61D-03
 Coeff-Com: -0.348D-01-0.142D+00 0.118D+01
 Coeff-En:   0.000D+00 0.000D+00 0.100D+01
 Coeff:     -0.345D-01-0.141D+00 0.118D+01
 Gap=     0.832 Goal=   None    Shift=    0.000
 Gap=     0.606 Goal=   None    Shift=    0.000
 RMSDP=5.03D-04 MaxDP=3.32D-03 DE=-4.04D-04 OVMax= 0.00D+00

 Cycle   4  Pass 1  IDiag  1:
 E= -152.570711554815     Delta-E=       -0.000056380601 Rises=F Damp=F
 DIIS: error= 4.64D-04 at cycle   4 NSaved=   4.
 NSaved= 4 IEnMin= 4 EnMin= -152.570711554815     IErMin= 4 ErrMin= 4.64D-04
 ErrMax= 4.64D-04 EMaxC= 1.00D-01 BMatC= 1.09D-05 BMatP= 5.33D-05
 IDIUse=3 WtCom= 9.95D-01 WtEn= 4.64D-03
 Coeff-Com:  0.495D-01-0.124D+00-0.337D+00 0.141D+01
 Coeff-En:   0.000D+00 0.000D+00 0.000D+00 0.100D+01
 Coeff:      0.493D-01-0.123D+00-0.336D+00 0.141D+01
 Gap=     0.832 Goal=   None    Shift=    0.000
 Gap=     0.607 Goal=   None    Shift=    0.000
 RMSDP=2.94D-04 MaxDP=2.70D-03 DE=-5.64D-05 OVMax= 0.00D+00

 Cycle   5  Pass 1  IDiag  1:
 E= -152.570725720566     Delta-E=       -0.000014165751 Rises=F Damp=F
 DIIS: error= 1.70D-04 at cycle   5 NSaved=   5.
 NSaved= 5 IEnMin= 5 EnMin= -152.570725720566     IErMin= 5 ErrMin= 1.70D-04
 ErrMax= 1.70D-04 EMaxC= 1.00D-01 BMatC= 1.83D-06 BMatP= 1.09D-05
 IDIUse=3 WtCom= 9.98D-01 WtEn= 1.70D-03
 Coeff-Com: -0.148D-01 0.817D-01-0.900D-01-0.548D+00 0.157D+01
 Coeff-En:   0.000D+00 0.000D+00 0.000D+00 0.000D+00 0.100D+01
 Coeff:     -0.147D-01 0.815D-01-0.898D-01-0.547D+00 0.157D+01
 Gap=     0.832 Goal=   None    Shift=    0.000
 Gap=     0.607 Goal=   None    Shift=    0.000
 RMSDP=1.48D-04 MaxDP=1.38D-03 DE=-1.42D-05 OVMax= 0.00D+00

 Cycle   6  Pass 1  IDiag  1:
 E= -152.570728343157     Delta-E=       -0.000002622591 Rises=F Damp=F
 DIIS: error= 3.40D-05 at cycle   6 NSaved=   6.
 NSaved= 6 IEnMin= 6 EnMin= -152.570728343157     IErMin= 6 ErrMin= 3.40D-05
 ErrMax= 3.40D-05 EMaxC= 1.00D-01 BMatC= 1.52D-07 BMatP= 1.83D-06
 IDIUse=1 WtCom= 1.00D+00 WtEn= 0.00D+00
 Coeff-Com: -0.407D-03-0.152D-01 0.686D-01 0.420D-01-0.568D+00 0.147D+01
 Coeff:     -0.407D-03-0.152D-01 0.686D-01 0.420D-01-0.568D+00 0.147D+01
 Gap=     0.832 Goal=   None    Shift=    0.000
 Gap=     0.607 Goal=   None    Shift=    0.000
 RMSDP=3.90D-05 MaxDP=3.18D-04 DE=-2.62D-06 OVMax= 0.00D+00

 Cycle   7  Pass 1  IDiag  1:
 E= -152.570728519019     Delta-E=       -0.000000175862 Rises=F Damp=F
 DIIS: error= 1.02D-05 at cycle   7 NSaved=   7.
 NSaved= 7 IEnMin= 7 EnMin= -152.570728519019     IErMin= 7 ErrMin= 1.02D-05
 ErrMax= 1.02D-05 EMaxC= 1.00D-01 BMatC= 1.53D-08 BMatP= 1.52D-07
 IDIUse=1 WtCom= 1.00D+00 WtEn= 0.00D+00
 Coeff-Com:  0.130D-02-0.349D-02-0.721D-02 0.376D-01-0.579D-03-0.328D+00
 Coeff-Com:  0.130D+01
 Coeff:      0.130D-02-0.349D-02-0.721D-02 0.376D-01-0.579D-03-0.328D+00
 Coeff:      0.130D+01
 Gap=     0.832 Goal=   None    Shift=    0.000
 Gap=     0.607 Goal=   None    Shift=    0.000
 RMSDP=7.67D-06 MaxDP=5.65D-05 DE=-1.76D-07 OVMax= 0.00D+00

 Cycle   8  Pass 1  IDiag  1:
 E= -152.570728533072     Delta-E=       -0.000000014053 Rises=F Damp=F
 DIIS: error= 6.54D-06 at cycle   8 NSaved=   8.
 NSaved= 8 IEnMin= 8 EnMin= -152.570728533072     IErMin= 8 ErrMin= 6.54D-06
 ErrMax= 6.54D-06 EMaxC= 1.00D-01 BMatC= 3.94D-09 BMatP= 1.53D-08
 IDIUse=1 WtCom= 1.00D+00 WtEn= 0.00D+00
 Coeff-Com: -0.907D-03 0.532D-02-0.656D-02-0.375D-01 0.987D-01 0.145D-01
 Coeff-Com: -0.112D+01 0.205D+01
 Coeff:     -0.907D-03 0.532D-02-0.656D-02-0.375D-01 0.987D-01 0.145D-01
[...]
     34 -0.510692D-03  0.637964D-03  0.417771D-03  0.229590D-03 -0.300790D-02
     35  0.147326D-01 -0.540672D-02  0.836694D-03  0.199133D-04  0.328494D-03
     36 -0.138090D-01  0.658155D-02 -0.178923D-02  0.208425D-03  0.141528D-02
               26            27            28            29            30 
     26  0.197855D-01
     27  0.594672D-02  0.187155D-01
     28 -0.990325D-02 -0.958965D-02  0.196506D-01
     29  0.512931D-02 -0.957880D-02  0.544726D-02  0.204833D-01
     30 -0.870946D-02  0.318994D-02  0.576086D-02  0.577515D-02  0.176745D-01
     31 -0.106772D-01 -0.882630D-02  0.482241D-02 -0.102393D-01 -0.838834D-02
     32  0.435533D-02 -0.881546D-02 -0.938094D-02  0.479673D-02 -0.837406D-02
     33 -0.948344D-02  0.395328D-02 -0.906734D-02 -0.991138D-02  0.352534D-02
     34  0.306657D-02  0.357014D-02 -0.500803D-02  0.106644D-02  0.157002D-02
     35 -0.104769D-02 -0.183775D-02  0.152293D-02  0.146753D-03 -0.643313D-03
     36 -0.163680D-02 -0.153079D-02  0.241371D-02 -0.638365D-03 -0.532364D-03
               31            32            33            34            35 
     31  0.197914D-01
     32  0.472967D-02  0.189073D-01
     33  0.658059D-02  0.573655D-02  0.191733D-01
     34 -0.489151D-02  0.118296D-02  0.168654D-02  0.204762D-01
     35  0.159342D-02  0.217242D-03 -0.572825D-03 -0.836807D-02  0.288936D-01
     36  0.218008D-02 -0.871997D-03 -0.765995D-03 -0.590206D-02 -0.153791D-01
               36 
     36  0.259888D-01
 Leave Link  716 at Thu Jan 24 17:02:52 2019, MaxMem=  134217728 cpu:       0.1
 (Enter /home/programs/G09_64/g09/l103.exe)

 GradGradGradGradGradGradGradGradGradGradGradGradGradGradGradGradGradGrad
 Berny optimization.
 Red2BG is reusing G-inverse.
 Internal  Forces:  Max     0.000041436 RMS     0.000010852
 Search for a saddle point.
 Step number   1 out of a maximum of    2
 All quantities printed in internal units (Hartrees-Bohrs-Radians)
 Swaping is turned off.
 Second derivative matrix not updated -- analytic derivatives used.
 ITU=  0
     Eigenvalues ---   -0.11354   0.00166   0.00530   0.01577   0.03733
     Eigenvalues ---    0.05448   0.06305   0.06602   0.06983   0.11085
     Eigenvalues ---    0.14957   0.17713   0.18382   0.21424   0.23348
     Eigenvalues ---    0.24309   0.31030   0.41329   0.45479   0.47193
     Eigenvalues ---    0.48514   0.48766   0.54630   0.64836
 Eigenvectors required to have negative eigenvalues:
                          R9        R7        D11       R5        D2
   1                    0.76981  -0.62064   0.05475   0.04518  -0.04169
                          A8        A12       D5        D8        D10
   1                   -0.04089   0.03929  -0.03898  -0.03830  -0.03739
 Angle between quadratic step and forces=  80.47 degrees.
 Linear search not attempted -- option 19 set.
 Iteration  1 RMS(Cart)=  0.00014226 RMS(Int)=  0.00000001
 Iteration  2 RMS(Cart)=  0.00000001 RMS(Int)=  0.00000000
 Variable       Old X    -DE/DX   Delta X   Delta X   Delta X     New X
                                 (Linear)    (Quad)   (Total)
    R1        2.90303  -0.00002   0.00000  -0.00006  -0.00006   2.90298
    R2        2.05173   0.00000   0.00000   0.00000   0.00000   2.05173
    R3        2.05372   0.00000   0.00000   0.00000   0.00000   2.05371
    R4        2.05173   0.00000   0.00000   0.00000   0.00000   2.05173
    R5        2.68496  -0.00001   0.00000  -0.00004  -0.00004   2.68492
    R6        2.07354   0.00000   0.00000   0.00001   0.00001   2.07355
    R7        2.39120  -0.00002   0.00000   0.00009   0.00009   2.39129
    R8        1.87169  -0.00004   0.00000  -0.00007  -0.00007   1.87162
    R9        1.86183   0.00001   0.00000  -0.00018  -0.00018   1.86165
    A1        1.92164   0.00000   0.00000   0.00000   0.00000   1.92164
    A2        1.92891   0.00000   0.00000  -0.00001  -0.00001   1.92890
    A3        1.92495   0.00000   0.00000   0.00001   0.00001   1.92496
    A4        1.89652   0.00000   0.00000   0.00000   0.00000   1.89652
    A5        1.89857   0.00000   0.00000   0.00000   0.00000   1.89856
    A6        1.89256   0.00000   0.00000   0.00000   0.00000   1.89256
    A7        1.92120   0.00000   0.00000   0.00001   0.00001   1.92121
    A8        1.94776  -0.00001   0.00000  -0.00005  -0.00005   1.94771
    A9        1.87525   0.00000   0.00000   0.00003   0.00003   1.87528
   A10        1.96830   0.00000   0.00000  -0.00004  -0.00004   1.96826
   A11        1.91944   0.00000   0.00000   0.00004   0.00004   1.91947
   A12        1.82749   0.00000   0.00000   0.00002   0.00002   1.82751
   A13        1.82394   0.00003   0.00000   0.00013   0.00013   1.82407
   A14        3.13801   0.00000   0.00000   0.00002   0.00002   3.13803
   A15        3.15215   0.00000   0.00000   0.00012   0.00012   3.15227
    D1        3.08589   0.00000   0.00000  -0.00020  -0.00020   3.08570
    D2       -0.99793   0.00000   0.00000  -0.00028  -0.00028  -0.99821
    D3        0.99600   0.00000   0.00000  -0.00026  -0.00026   0.99574
    D4       -1.10197   0.00000   0.00000  -0.00020  -0.00020  -1.10217
    D5        1.09739   0.00000   0.00000  -0.00029  -0.00029   1.09711
    D6        3.09132   0.00000   0.00000  -0.00027  -0.00027   3.09105
    D7        0.99056   0.00000   0.00000  -0.00020  -0.00020   0.99036
    D8       -3.09326   0.00000   0.00000  -0.00029  -0.00029  -3.09355
    D9       -1.09934   0.00000   0.00000  -0.00027  -0.00027  -1.09960
   D10        3.10440   0.00000   0.00000   0.00003   0.00003   3.10443
   D11        0.91670   0.00001   0.00000   0.00013   0.00013   0.91682
   D12       -1.11593   0.00000   0.00000   0.00009   0.00009  -1.11583
         Item               Value     Threshold  Converged?
 Maximum Force            0.000041     0.000450     YES
 RMS     Force            0.000011     0.000300     YES
 Maximum Displacement     0.000391     0.001800     YES
 RMS     Displacement     0.000142     0.001200     YES
 Predicted change in Energy=-4.482747D-09
 Optimization completed.
    -- Stationary point found.
                           ----------------------------
                           !   Optimized Parameters   !
                           ! (Angstroms and Degrees)  !
 --------------------------                            --------------------------
 ! Name  Definition              Value          Derivative Info.                !
 --------------------------------------------------------------------------------
 ! R1    R(1,2)                  1.5362         -DE/DX =    0.0                 !
 ! R2    R(1,4)                  1.0857         -DE/DX =    0.0                 !
 ! R3    R(1,5)                  1.0868         -DE/DX =    0.0                 !
 ! R4    R(1,6)                  1.0857         -DE/DX =    0.0                 !
 ! R5    R(2,3)                  1.4208         -DE/DX =    0.0                 !
 ! R6    R(2,7)                  1.0973         -DE/DX =    0.0                 !
 ! R7    R(2,8)                  1.2654         -DE/DX =    0.0                 !
 ! R8    R(3,9)                  0.9905         -DE/DX =    0.0                 !
 ! R9    R(8,10)                 0.9852         -DE/DX =    0.0                 !
 ! A1    A(2,1,4)              110.1016         -DE/DX =    0.0                 !
 ! A2    A(2,1,5)              110.5186         -DE/DX =    0.0                 !
 ! A3    A(2,1,6)              110.2914         -DE/DX =    0.0                 !
 ! A4    A(4,1,5)              108.6626         -DE/DX =    0.0                 !
 ! A5    A(4,1,6)              108.7798         -DE/DX =    0.0                 !
 ! A6    A(5,1,6)              108.4357         -DE/DX =    0.0                 !
 ! A7    A(1,2,3)              110.0768         -DE/DX =    0.0                 !
 ! A8    A(1,2,7)              111.5987         -DE/DX =    0.0                 !
 ! A9    A(1,2,8)              107.4439         -DE/DX =    0.0                 !
 ! A10   A(3,2,7)              112.7752         -DE/DX =    0.0                 !
 ! A11   A(3,2,8)              109.9755         -DE/DX =    0.0                 !
 ! A12   A(7,2,8)              104.7072         -DE/DX =    0.0                 !
 ! A13   A(2,3,9)              104.504          -DE/DX =    0.0                 !
 ! A14   L(2,8,10,1,-1)        179.7947         -DE/DX =    0.0                 !
 ! A15   L(2,8,10,1,-2)        180.6048         -DE/DX =    0.0                 !
 ! D1    D(4,1,2,3)            176.8087         -DE/DX =    0.0                 !
 ! D2    D(4,1,2,7)            -57.1771         -DE/DX =    0.0                 !
 ! D3    D(4,1,2,8)             57.0665         -DE/DX =    0.0                 !
 ! D4    D(5,1,2,3)            -63.1381         -DE/DX =    0.0                 !
 ! D5    D(5,1,2,7)             62.8761         -DE/DX =    0.0                 !
 ! D6    D(5,1,2,8)            177.1197         -DE/DX =    0.0                 !
 ! D7    D(6,1,2,3)             56.7549         -DE/DX =    0.0                 !
 ! D8    D(6,1,2,7)           -177.231          -DE/DX =    0.0                 !
 ! D9    D(6,1,2,8)            -62.9874         -DE/DX =    0.0                 !
 ! D10   D(1,2,3,9)            177.8688         -DE/DX =    0.0                 !
 ! D11   D(7,2,3,9)             52.5229         -DE/DX =    0.0                 !
 ! D12   D(8,2,3,9)            -63.9379         -DE/DX =    0.0                 !
 --------------------------------------------------------------------------------
 GradGradGradGradGradGradGradGradGradGradGradGradGradGradGradGradGradGrad

 Leave Link  103 at Thu Jan 24 17:02:52 2019, MaxMem=  134217728 cpu:       0.0
 (Enter /home/programs/G09_64/g09/l9999.exe)
 1\1\GINC-AF2CIQUS\Freq\UHF\STO-3G\C2H7O1(2)\RAMOS\24-Jan-2019\0\\#P Ge
 om=AllCheck Guess=TCheck SCRF=Check GenChk UHF/STO-3G Freq\\---\\0,2\C
 ,1.2994475398,-0.215447998,-0.0771529035\C,-0.052054093,0.4176915136,0
 .2869183502\O,-1.1155617959,-0.4048635554,-0.1725198212\H,2.1114572538
 ,0.4395070163,0.223652549\H,1.4197356324,-1.1717126033,0.4250223764\H,
 1.3617247396,-0.3800247291,-1.1485287873\H,-0.1187589231,0.6384646283,
 1.3596757849\H,-0.1054438946,1.5488091661,-0.2777768585\H,-1.936491898
 5,0.0572231863,0.1333493614\H,-0.1410240057,2.4318140066,-0.7133581689
 \\Version=AM64L-G09RevB.01\HF=-152.5708107\S2=0.784799\S2-1=0.\S2A=0.7
 50196\RMSD=1.027e-09\RMSF=1.783e-05\ZeroPoint=0.0920137\Thermal=0.0966
 97\Dipole=-0.0571709,0.3082672,0.357311\DipoleDeriv=-0.0289085,-0.0794
 949,-0.0033526,0.0048659,-0.1089713,0.0146241,-0.0371689,0.0603365,-0.
 0744098,0.563044,0.1520619,-0.0274463,0.1092237,0.8195003,-0.2714131,0
 .0245248,-0.159385,0.3599466,-0.3353304,-0.3242546,-0.0604581,-0.20160
 37,-0.4351269,0.202926,-0.0899467,0.1023866,-0.3799358,-0.0261298,-0.0
 175426,-0.0109967,-0.0065855,0.0088451,-0.0135854,-0.0013739,-0.017448
 1,0.0380849,0.000146,0.0607755,-0.0083992,0.0169961,-0.0127557,0.02714
 71,0.0189802,0.0061654,0.0342482,0.018071,0.0218988,0.0196633,0.017009
 8,0.0402753,-0.0128132,0.0021056,-0.0090496,-0.0162596,-0.0903083,0.02
 05573,0.0397794,-0.0332346,-0.0944947,0.051739,-0.0060571,-0.0210434,-
 0.089567,-0.0378825,0.0433526,-0.0276115,-0.0597222,-0.5395963,0.21153
 57,0.010176,0.2730484,-0.109307,-0.0314633,0.1318149,0.0743903,0.13710
 34,0.122132,-0.1161734,0.0859861,-0.1133769,0.2180821,-0.0312381,-0.00
 91689,0.0044314,0.015947,0.2001922,-0.0939868,-0.0072261,-0.1216339,0.
 0191173\Polar=17.2033354,-0.1402443,20.5556539,-0.3013719,-2.9974145,1
 2.8765702\PolarDeriv=0.4105277,-1.9230564,-0.7239529,-1.0579278,0.2182
 512,-0.3388632,-2.4248435,-1.3256374,2.6100185,0.2774075,-1.5365102,0.
 7819292,-1.2965919,0.284616,-1.7065931,-0.7733759,1.2127767,2.2248646,
 -0.1842365,0.9906262,-0.555088,1.0083939,0.2522686,0.2987272,2.5601638
 ,-0.6706574,-5.9046362,0.2951288,3.0158306,-1.2859887,1.8108246,0.0435
 767,1.8290156,0.3138374,-0.9196914,-2.6625538,1.2930258,-1.3679111,1.4
 402767,-1.9015232,-0.8058968,0.1840771,-3.4081858,-0.1512745,-1.764155
 4,-0.4548605,-1.9778398,0.2140633,-2.0576303,0.0129085,0.2577187,-0.65
 62514,-2.1995516,-1.2224245,4.7093936,1.5167651,-0.0153149,0.9882656,-
 0.0513315,0.173497,0.9433981,2.0012241,1.8977474,0.0423451,0.8385742,-
 0.0227174,0.4666738,-0.0104769,0.3806383,1.9751835,0.8866677,0.7606845
 ,1.0582545,-1.8573211,0.5828857,1.2643912,-0.1601909,0.0786929,-0.0945
 863,1.3428774,-5.675093,-0.2380562,1.5451964,-0.3438248,0.4659712,-0.3
 149054,0.7908301,0.6843638,-2.3681947,1.6045772,0.6678382,-0.1534431,0
 .2159757,-2.1223442,0.1708843,0.1722163,0.3346825,0.5802947,-1.4153779
 ,0.143562,-1.8695438,-0.3018746,-0.1915373,0.1961559,-0.1041096,0.8996
 601,-1.0562736,-5.1854164,-0.1705624,0.0195971,-0.4316734,2.3559021,0.
 1024563,-0.3087596,-0.2942422,-0.1478892,1.1485859,0.0921878,1.7747589
 ,0.5598288,0.0695368,-0.0836375,-0.1121658,-0.1394145,0.5632157,6.2665
 251,-0.0407463,0.1130783,-0.2427826,-0.2407134,0.0978099,-0.0962899,0.
 9769462,0.7040717,5.2331868,-0.0047469,-1.8873299,0.7048873,-0.76801,-
 0.3501233,-2.475186,-0.0446662,1.2955772,-0.4270803,-7.6861612,-0.0675
 827,-0.2794928,0.8790137,0.1743979,-0.1666802,1.8270793,-2.0352896,0.3
 787849,-0.1570393,0.4959424,0.0585612,1.2368606,0.0816143,0.1207857,-2
 .222909,0.3353295,0.830488,-0.0573333,2.7292475,0.0091666,-1.1734578,0
 .001351,0.0033824,-0.4204119,-0.2977198,3.4909389,0.0040718,-0.399079,
 -0.3648644,0.2639024,0.1402718,1.0190661,-0.0364278,2.2501444,-2.18966
 44\HyperPolar=-3.7523055,18.0944992,14.9456601,63.0055384,1.5907289,-2
 .0848744,-19.2291826,1.8763651,8.90359,-1.6319675\PG=C01 [X(C2H7O1)]\N
 Imag=1\\0.75037765,0.05661111,0.82611412,0.03233816,-0.00403178,0.8487
 5763,-0.26239539,0.08764320,0.03996207,0.73263723,0.07111853,-0.144320
 08,-0.03038746,0.02774544,0.43437462,0.04665966,-0.03725153,-0.1310530
 9,-0.00846653,0.18743760,0.72097390,-0.03777109,-0.02438577,-0.0122765
 6,-0.28323170,-0.15817612,-0.10126040,0.77312037,0.01502144,0.02042556
 ,0.00919196,-0.09331768,-0.18882239,-0.10251464,-0.06340147,0.39433462
 ,0.00758397,0.01034253,0.00918704,-0.03689189,-0.07992855,-0.11537882,
 -0.06262002,0.21935338,0.18602120,-0.28891719,-0.17718887,-0.08099751,
 -0.02249569,-0.02618759,-0.01397371,-0.00404041,0.00558896,0.00343377,
 0.29981600,-0.17557298,-0.21980444,-0.06478497,0.01735504,0.01568174,0
 .00800739,0.00409755,-0.00303997,-0.00213634,0.18516181,0.22162657,-0.
 08062027,-0.06458860,-0.10908548,0.00918842,0.00899679,0.00357827,0.00
 225683,-0.00196194,-0.00040191,0.08517757,0.07029992,0.10072205,-0.078
 40149,0.03589432,-0.02214905,-0.00499124,0.03686487,-0.01856979,0.0024
 4689,-0.00185162,0.00048913,0.00782393,-0.02992801,0.01978954,0.074683
 67,0.03122719,-0.37353658,0.15750214,0.00150684,-0.01223410,0.00639346
 ,-0.00096588,0.00122711,-0.00014784,0.00885693,-0.01520914,0.01390391,
 -0.03908619,0.38572428,-0.01881888,0.15535544,-0.16219598,0.00192777,-
 0.01306333,0.00658356,-0.00031904,0.00048125,0.00001702,0.00179903,-0.
 01610766,0.00787735,0.01866304,-0.16708761,0.15791311,-0.07659599,0.00
 045965,0.02004376,0.00078265,0.00653361,0.04344783,0.00299079,-0.00048
 274,-0.00147752,0.00600373,-0.00138225,-0.03563847,0.00003715,-0.00150
 160,-0.00451030,0.07190333,0.00103134,-0.08762989,-0.05603434,-0.00040
 257,-0.00341762,-0.01991668,-0.00101163,0.00041725,0.00094017,0.005739
 60,-0.00127254,-0.02753062,-0.00254797,0.01207569,0.04205628,-0.005429
 90,0.07938003,0.01768103,-0.05543103,-0.45621346,-0.00099455,-0.000263
 79,-0.00266765,-0.00072913,0.00030448,0.00055215,0.00520209,0.00388476
 ,-0.00376489,0.00102372,-0.00970815,-0.01153529,-0.02157712,0.06085779
 ,0.47206264,0.00038788,0.00513026,0.03988607,-0.07751714,0.00402881,0.
 02712106,-0.00473782,-0.01545970,-0.03760987,0.00217085,-0.00055887,-0
 .00063550,0.00170353,-0.00098761,-0.00075945,-0.00701566,0.00370963,-0
 .00002178,0.07918452,0.00239998,-0.00062673,-0.01980958,0.00327439,-0.
 06742023,-0.06179979,-0.00747104,-0.00782030,-0.03217929,-0.00026883,0
 .00023081,0.00056150,-0.00181078,0.00125857,0.00014428,0.00313334,-0.0
 0038627,-0.00003683,0.00023473,0.07785701,-0.00324692,0.00214779,-0.00
 126989,0.02901040,-0.07553814,-0.42087814,-0.00496622,-0.00693135,-0.0
 0763357,0.00004563,0.00022539,0.00046097,-0.00030497,-0.00006674,0.000
 74979,0.00007349,-0.00012168,0.00096763,-0.02300791,0.08078690,0.43575
 367,-0.00238212,0.02400100,-0.01274555,-0.05522080,-0.00174496,0.00329
 941,-0.00482703,-0.02548144,0.00515421,0.00122871,-0.00021079,-0.00017
 003,-0.00420237,0.00146266,0.00206390,0.00105372,-0.00071645,-0.000270
 56,0.00211195,-0.00117685,0.00198040,0.08116076,0.00468124,-0.02479863
 ,0.01458016,0.00540814,0.11937097,-0.06375754,-0.02408352,-0.04544750,
 0.00079799,-0.00097240,0.00062121,0.00001678,0.00329668,0.00086173,-0.
 00234778,-0.00162006,0.00099860,0.00069429,0.00503504,-0.01150511,0.00
 145800,0.00996671,-0.15211480,0.00020589,0.00000430,0.00014312,-0.0015
 4846,-0.08383410,-0.03252749,0.00607758,0.00200860,0.00823434,0.000036
 92,0.00020708,0.00000851,0.00066064,-0.00083994,0.00103855,0.00000184,
 -0.00041407,0.00037886,-0.00448973,0.03494641,-0.01248019,-0.00269142,
 0.11341392,0.02342625,-0.00473626,-0.00759435,-0.00407875,-0.03645492,
 0.03394429,0.02413850,-0.44419674,0.17865418,0.12199041,-0.00172857,0.
 00118325,0.00058001,0.00074834,-0.00031331,-0.00004721,0.00081662,-0.0
 0026490,-0.00031615,0.00388461,0.00194531,0.00044012,0.00163784,0.0032
 5365,-0.00058704,0.47993142,-0.00395054,-0.00348170,-0.00259896,-0.053
 82153,0.00523966,0.00716696,0.26846294,-0.18307650,-0.11747920,-0.0010
 3955,0.00105877,0.00041281,-0.00005773,-0.00003925,-0.00007235,-0.0000
 2030,-0.00012091,-0.00000166,0.00059547,0.00081026,0.00093458,-0.00071
 623,0.00204818,-0.00042317,-0.20968009,0.17766277,-0.00264191,-0.00292
 517,-0.00012551,-0.03030805,0.00403443,0.00011565,0.17680459,-0.114913
 82,-0.08036796,-0.00059820,0.00048739,0.00057275,0.00005899,-0.0000719
 1,-0.00005854,-0.00011924,-0.00002264,0.00008123,-0.00130191,0.0017251
 0,0.00201417,0.00090306,-0.00022647,0.00020890,-0.14266033,0.11195018,
 0.07766786,0.00043401,-0.00057057,0.00001735,0.00888701,0.00587312,-0.
 00239602,0.00024675,0.00073007,-0.00005218,0.00013865,-0.00014474,0.00
 007189,0.00015159,-0.00019904,0.00000114,0.00002367,-0.00010716,0.0000
 0246,-0.00017274,-0.00026025,-0.00002402,-0.02056066,-0.00496548,0.002
 33378,0.00009767,0.00022757,-0.00013699,0.01075405,-0.00256732,0.00765
 837,-0.00362716,0.00460872,-0.15845257,0.07623478,0.00693494,0.0118021
 2,0.00043714,0.00030995,0.00010701,-0.00011056,-0.00077357,-0.00012830
 ,0.00064147,0.00031025,-0.00004434,-0.00029985,-0.00172777,0.00760200,
 -0.00289475,-0.00538364,0.10996535,-0.06506903,-0.00112802,-0.00010127
 ,-0.00003709,-0.00058352,0.02159164,0.00085928,-0.00362195,0.00185562,
 -0.00187916,0.08254654,-0.02874619,-0.00296765,-0.00501792,-0.00022949
 ,-0.00012559,-0.00008295,0.00003239,0.00033876,0.00012268,-0.00038959,
 -0.00024427,0.00018580,0.00013878,0.00081904,-0.00433869,0.00231556,0.
 00247657,-0.06462937,0.01156917,0.00054044,0.00011081,-0.00010854,0.00
 018259,-0.00527494,0.01356229\\0.00001745,-0.00000570,-0.00001193,-0.0
 0001957,-0.00001239,0.00003936,0.00002703,-0.00004189,-0.00003565,-0.0
 0000011,-0.00000049,0.00000092,0.00000139,-0.00000216,-0.00000011,0.00
 000039,0.00000024,-0.00000050,-0.00000125,0.00001169,-0.00000477,-0.00
 000132,0.00002802,-0.00001115,-0.00002423,0.00003179,0.00002112,0.0000
 0021,-0.00000911,0.00000272\\\@


 GOD GAVE US TWO ENDS... ONE TO SIT ON...    
 AND THE OTHER TO THINK WITH...              
 YOUR SUCCESS DEPENDS UPON WHICH END YOU     
 USE THE MOST...                             
                                             
 IT'S A CASE OF HEADS YOU WIN TAILS YOU LOSE.
          SOURCE UNKNOWN(IT'S JUST AS WELL.) 
 Job cpu time:  0 days  0 hours  0 minutes  2.2 seconds.
 File lengths (MBytes):  RWF=      5 Int=      0 D2E=      0 Chk=      1 Scr=      1
 Normal termination of Gaussian 09 at Thu Jan 24 17:02:52 2019.
