 Entering Gaussian System, Link 0=/home/programs/G09_64/g09/g09
 Initial command:
 /home/programs/G09_64/g09/l1.exe /scratch/Gau-25235.inp -scrdir=/scratch/
 Entering Link 1 = /home/programs/G09_64/g09/l1.exe PID=     25237.
  
 Copyright (c) 1988,1990,1992,1993,1995,1998,2003,2009,2010,
            Gaussian, Inc.  All Rights Reserved.
  
 This is part of the Gaussian(R) 09 program.  It is based on
 the Gaussian(R) 03 system (copyright 2003, Gaussian, Inc.),
 the Gaussian(R) 98 system (copyright 1998, Gaussian, Inc.),
 the Gaussian(R) 94 system (copyright 1995, Gaussian, Inc.),
 the Gaussian 92(TM) system (copyright 1992, Gaussian, Inc.),
 the Gaussian 90(TM) system (copyright 1990, Gaussian, Inc.),
 the Gaussian 88(TM) system (copyright 1988, Gaussian, Inc.),
 the Gaussian 86(TM) system (copyright 1986, Carnegie Mellon
 University), and the Gaussian 82(TM) system (copyright 1983,
 Carnegie Mellon University). Gaussian is a federally registered
 trademark of Gaussian, Inc.
  
 This software contains proprietary and confidential information,
 including trade secrets, belonging to Gaussian, Inc.
  
 This software is provided under written license and may be
 used, copied, transmitted, or stored only in accord with that
 written license.
  
 The following legend is applicable only to US Government
 contracts under FAR:
  
                    RESTRICTED RIGHTS LEGEND
  
 Use, reproduction and disclosure by the US Government is
 subject to restrictions as set forth in subparagraphs (a)
 and (c) of the Commercial Computer Software - Restricted
 Rights clause in FAR 52.227-19.
  
 Gaussian, Inc.
 340 Quinnipiac St., Bldg. 40, Wallingford CT 06492
  
  
 ---------------------------------------------------------------
 Warning -- This program may not be used in any manner that
 competes with the business of Gaussian, Inc. or will provide
 assistance to any competitor of Gaussian, Inc.  The licensee
 of this program is prohibited from giving any competitor of
 Gaussian, Inc. access to this program.  By using this program,
 the user acknowledges that Gaussian, Inc. is engaged in the
 business of creating and licensing software in the field of
 computational chemistry and represents and warrants to the
 licensee that it is not a competitor of Gaussian, Inc. and that
 it will not use this program in any manner prohibited above.
 ---------------------------------------------------------------
  

 Cite this work as:
 Gaussian 09, Revision B.01,
 M. J. Frisch, G. W. Trucks, H. B. Schlegel, G. E. Scuseria, 
 M. A. Robb, J. R. Cheeseman, G. Scalmani, V. Barone, B. Mennucci, 
 G. A. Petersson, H. Nakatsuji, M. Caricato, X. Li, H. P. Hratchian, 
 A. F. Izmaylov, J. Bloino, G. Zheng, J. L. Sonnenberg, M. Hada, 
 M. Ehara, K. Toyota, R. Fukuda, J. Hasegawa, M. Ishida, T. Nakajima, 
 Y. Honda, O. Kitao, H. Nakai, T. Vreven, J. A. Montgomery, Jr., 
 J. E. Peralta, F. Ogliaro, M. Bearpark, J. J. Heyd, E. Brothers, 
 K. N. Kudin, V. N. Staroverov, T. Keith, R. Kobayashi, J. Normand, 
 K. Raghavachari, A. Rendell, J. C. Burant, S. S. Iyengar, J. Tomasi, 
 M. Cossi, N. Rega, J. M. Millam, M. Klene, J. E. Knox, J. B. Cross, 
 V. Bakken, C. Adamo, J. Jaramillo, R. Gomperts, R. E. Stratmann, 
 O. Yazyev, A. J. Austin, R. Cammi, C. Pomelli, J. W. Ochterski, 
 R. L. Martin, K. Morokuma, V. G. Zakrzewski, G. A. Voth, 
 P. Salvador, J. J. Dannenberg, S. Dapprich, A. D. Daniels, 
 O. Farkas, J. B. Foresman, J. V. Ortiz, J. Cioslowski, 
 and D. J. Fox, Gaussian, Inc., Wallingford CT, 2010.
 
 ******************************************
 Gaussian 09:  AM64L-G09RevB.01 12-Aug-2010
                24-Jan-2019 
 ******************************************
 %mem=1GB
 %chk=kk.chk
 ----------------------------------------------------------------------
 #p hf/sto-3g scf=verytight opt=(ts,noeigentest,calcfc) NoSymm freq uni
 ts=au
 ----------------------------------------------------------------------
 1/5=1,10=4,11=1,18=20,20=1,38=1/1,3;
 2/9=110,12=2,15=1,17=6,18=5,40=1/2;
 3/6=3,11=9,16=1,25=1,30=1,71=2/1,2,3;
 4//1;
 5/5=2,17=3,38=5/2;
 8/6=4,10=90,11=11/1;
 11/6=1,8=1,9=11,15=111,16=1,31=1/1,2,10;
 10/6=1,7=6,13=1,31=1/2;
 6/7=2,8=2,9=2,10=2,28=1/1;
 7/10=1,18=20,25=1,30=1/1,2,3,16;
 1/5=1,10=4,11=1,18=20/3(2);
 2/9=110,15=1/2;
 99//99;
 2/9=110,15=1/2;
 3/6=3,11=9,16=1,25=1,30=1,71=1/1,2,3;
 4/5=5,16=3/1;
 5/5=2,17=3,38=5/2;
 7/30=1/1,2,3,16;
 1/5=1,11=1,18=20/3(-5);
 2/9=110,15=1/2;
 6/7=2,8=2,9=2,10=2,19=2,28=1/1;
 99/9=1/99;
 Leave Link    1 at Thu Jan 24 17:04:11 2019, MaxMem=  134217728 cpu:       0.0
 (Enter /home/programs/G09_64/g09/l101.exe)
 ---
 ---
 ---
 Symbolic Z-matrix:
 Charge =  0 Multiplicity = 2
 C                    -2.40592  -0.44266   0.19106 
 C                     0.04526   0.75482  -0.54922 
 O                     2.19467  -0.56728   0.10587 
 H                    -3.98057   0.76128  -0.34069 
 H                    -2.63758  -2.26895  -0.72591 
 H                    -2.49422  -0.72655   2.22697 
 H                     0.19228   1.27195  -2.52611 
 H                     0.08007   2.92701   0.58886 
 H                     2.03073  -1.17416   1.80352 
 H                     0.08627   4.49567   1.55757 
 
 NAtoms=     10 NQM=     10 NQMF=      0 NMic=      0 NMicF=      0 NTot=     10.
                    Isotopes and Nuclear Properties:
 (Nuclear quadrupole moments (NQMom) in fm**2, nuclear magnetic moments (NMagM)
  in nuclear magnetons)

  Atom         1           2           3           4           5           6           7           8           9          10
 IAtWgt=          12          12          16           1           1           1           1           1           1           1
 AtmWgt=  12.0000000  12.0000000  15.9949146   1.0078250   1.0078250   1.0078250   1.0078250   1.0078250   1.0078250   1.0078250
 NucSpn=           0           0           0           1           1           1           1           1           1           1
 AtZEff=   0.0000000   0.0000000   0.0000000   0.0000000   0.0000000   0.0000000   0.0000000   0.0000000   0.0000000   0.0000000
 NQMom=    0.0000000   0.0000000   0.0000000   0.0000000   0.0000000   0.0000000   0.0000000   0.0000000   0.0000000   0.0000000
 NMagM=    0.0000000   0.0000000   0.0000000   2.7928460   2.7928460   2.7928460   2.7928460   2.7928460   2.7928460   2.7928460
 Leave Link  101 at Thu Jan 24 17:04:11 2019, MaxMem=  134217728 cpu:       0.1
 (Enter /home/programs/G09_64/g09/l103.exe)

 GradGradGradGradGradGradGradGradGradGradGradGradGradGradGradGradGradGrad
 Berny optimization.
 Initialization pass.
                           ----------------------------
                           !    Initial Parameters    !
                           ! (Angstroms and Degrees)  !
 --------------------------                            --------------------------
 ! Name  Definition              Value          Derivative Info.                !
 --------------------------------------------------------------------------------
 ! R1    R(1,2)                  1.4958         calculate D2E/DX2 analytically  !
 ! R2    R(1,4)                  1.086          calculate D2E/DX2 analytically  !
 ! R3    R(1,5)                  1.0883         calculate D2E/DX2 analytically  !
 ! R4    R(1,6)                  1.0888         calculate D2E/DX2 analytically  !
 ! R5    R(2,3)                  1.3796         calculate D2E/DX2 analytically  !
 ! R6    R(2,7)                  1.0841         calculate D2E/DX2 analytically  !
 ! R7    R(2,8)                  1.2978         calculate D2E/DX2 analytically  !
 ! R8    R(3,9)                  0.958          calculate D2E/DX2 analytically  !
 ! R9    R(8,10)                 0.9756         calculate D2E/DX2 analytically  !
 ! A1    A(2,1,4)              110.4245         calculate D2E/DX2 analytically  !
 ! A2    A(2,1,5)              110.9215         calculate D2E/DX2 analytically  !
 ! A3    A(2,1,6)              110.7815         calculate D2E/DX2 analytically  !
 ! A4    A(4,1,5)              108.6014         calculate D2E/DX2 analytically  !
 ! A5    A(4,1,6)              107.7224         calculate D2E/DX2 analytically  !
 ! A6    A(5,1,6)              108.2893         calculate D2E/DX2 analytically  !
 ! A7    A(1,2,3)              115.7398         calculate D2E/DX2 analytically  !
 ! A8    A(1,2,7)              114.9527         calculate D2E/DX2 analytically  !
 ! A9    A(1,2,8)              105.4256         calculate D2E/DX2 analytically  !
 ! A10   A(3,2,7)              108.138          calculate D2E/DX2 analytically  !
 ! A11   A(3,2,8)              108.714          calculate D2E/DX2 analytically  !
 ! A12   A(7,2,8)              102.8967         calculate D2E/DX2 analytically  !
 ! A13   A(2,3,9)              109.328          calculate D2E/DX2 analytically  !
 ! A14   L(2,8,10,1,-1)        177.5386         calculate D2E/DX2 analytically  !
 ! A15   L(2,8,10,1,-2)        175.0733         calculate D2E/DX2 analytically  !
 ! D1    D(4,1,2,3)            177.9752         calculate D2E/DX2 analytically  !
 ! D2    D(4,1,2,7)            -54.759          calculate D2E/DX2 analytically  !
 ! D3    D(4,1,2,8)             57.8078         calculate D2E/DX2 analytically  !
 ! D4    D(5,1,2,3)            -61.5761         calculate D2E/DX2 analytically  !
 ! D5    D(5,1,2,7)             65.6897         calculate D2E/DX2 analytically  !
 ! D6    D(5,1,2,8)            178.2565         calculate D2E/DX2 analytically  !
 ! D7    D(6,1,2,3)             58.7169         calculate D2E/DX2 analytically  !
 ! D8    D(6,1,2,7)           -174.0173         calculate D2E/DX2 analytically  !
 ! D9    D(6,1,2,8)            -61.4505         calculate D2E/DX2 analytically  !
 ! D10   D(1,2,3,9)            -44.1523         calculate D2E/DX2 analytically  !
 ! D11   D(7,2,3,9)           -174.7517         calculate D2E/DX2 analytically  !
 ! D12   D(8,2,3,9)             74.213          calculate D2E/DX2 analytically  !
 --------------------------------------------------------------------------------
 Trust Radius=3.00D-01 FncErr=1.00D-07 GrdErr=1.00D-07
 Number of steps in this run=     46 maximum allowed number of steps=    100.
 Search for a saddle point of order  1.
 GradGradGradGradGradGradGradGradGradGradGradGradGradGradGradGradGradGrad

 Leave Link  103 at Thu Jan 24 17:04:11 2019, MaxMem=  134217728 cpu:       0.0
 (Enter /home/programs/G09_64/g09/l202.exe)
                          Input orientation:                          
 ---------------------------------------------------------------------
 Center     Atomic      Atomic             Coordinates (Angstroms)
 Number     Number       Type             X           Y           Z
 ---------------------------------------------------------------------
      1          6           0       -1.273159   -0.234243    0.101106
      2          6           0        0.023951    0.399431   -0.290633
      3          8           0        1.161369   -0.300190    0.056025
      4          1           0       -2.106426    0.402851   -0.180284
      5          1           0       -1.395748   -1.200678   -0.384135
      6          1           0       -1.319883   -0.384475    1.178462
      7          1           0        0.101749    0.673087   -1.336760
      8          1           0        0.042371    1.548905    0.311611
      9          1           0        1.074617   -0.621337    0.954382
     10          1           0        0.045654    2.379005    0.824228
 ---------------------------------------------------------------------
                    Distance matrix (angstroms):
                    1          2          3          4          5
     1  C    0.000000
     2  C    1.495827   0.000000
     3  O    2.435839   1.379624   0.000000
     4  H    1.086003   2.133236   3.350909   0.000000
     5  H    1.088340   2.141176   2.746537   1.765764   0.000000
     6  H    1.088783   2.139776   2.724625   1.756338   1.764555
     7  H    2.186568   1.084122   2.002477   2.507290   2.580888
     8  H    2.225882   1.297817   2.176381   2.484498   3.180009
     9  H    2.527840   1.922480   0.957970   3.529230   2.868792
    10  H    3.015168   2.272025   3.002173   3.089608   4.043749
                    6          7          8          9         10
     6  H    0.000000
     7  H    3.076657   0.000000
     8  H    2.518953   1.867541   0.000000
     9  H    2.416598   2.805590   2.487697   0.000000
    10  H    3.102740   2.753756   0.975629   3.174548   0.000000
 Symmetry turned off by external request.
 Stoichiometry    C2H7O(2)
 Framework group  C1[X(C2H7O)]
 Deg. of freedom    24
 Full point group                 C1      NOp   1
 Rotational constants (GHZ):     24.0786505      8.9345002      7.7416586
 Leave Link  202 at Thu Jan 24 17:04:11 2019, MaxMem=  134217728 cpu:       0.0
 (Enter /home/programs/G09_64/g09/l301.exe)
 Standard basis: STO-3G (5D, 7F)
 Ernie: Thresh=  0.10000D-02 Tol=  0.10000D-05 Strict=F.
 Integral buffers will be    131072 words long.
 Raffenetti 2 integral format.
 Two-electron integral symmetry is turned off.
    22 basis functions,    66 primitive gaussians,    22 cartesian basis functions
    14 alpha electrons       13 beta electrons
       nuclear repulsion energy        87.3360998551 Hartrees.
 IExCor=    0 DFT=F Ex=HF Corr=None ExCW=0 ScaHFX=  1.000000
 ScaDFX=  1.000000  1.000000  1.000000  1.000000 ScalE2=  1.000000  1.000000
 IRadAn=      0 IRanWt=     -1 IRanGd=            0 ICorTp=0
 NAtoms=   10 NActive=   10 NUniq=   10 SFac= 1.00D+00 NAtFMM=   50 NAOKFM=F Big=F
 Leave Link  301 at Thu Jan 24 17:04:11 2019, MaxMem=  134217728 cpu:       0.1
 (Enter /home/programs/G09_64/g09/l302.exe)
 NPDir=0 NMtPBC=     1 NCelOv=     1 NCel=       1 NClECP=     1 NCelD=      1
         NCelK=      1 NCelE2=     1 NClLst=     1 CellRange=     0.0.
 One-electron integrals computed using PRISM.
 NBasis=    22 RedAO= T  NBF=    22
 NBsUse=    22 1.00D-06 NBFU=    22
 Leave Link  302 at Thu Jan 24 17:04:12 2019, MaxMem=  134217728 cpu:       0.2
 (Enter /home/programs/G09_64/g09/l303.exe)
 DipDrv:  MaxL=1.
 Leave Link  303 at Thu Jan 24 17:04:12 2019, MaxMem=  134217728 cpu:       0.0
 (Enter /home/programs/G09_64/g09/l401.exe)
 Harris functional with IExCor=  205 diagonalized for initial guess.
 ExpMin= 1.69D-01 ExpMax= 1.31D+02 ExpMxC= 1.31D+02 IAcc=1 IRadAn=         1 AccDes= 0.00D+00
 HarFok:  IExCor=  205 AccDes= 0.00D+00 IRadAn=         1 IDoV= 1
 ScaDFX=  1.000000  1.000000  1.000000  1.000000
 FoFCou: FMM=F IPFlag=           0 FMFlag=      100000 FMFlg1=           0
         NFxFlg=           0 DoJE=T BraDBF=F KetDBF=T FulRan=T
         Omega=  0.000000  0.000000  1.000000  0.000000  0.000000 ICntrl=     500 IOpCl=  0
         NMat0=    1 NMatS0=    1 NMatT0=    0 NMatD0=    1 NMtDS0=    0 NMtDT0=    0
         I1Cent=           4 NGrid=           0.
 Symmetry not used in FoFCou.
 Harris En= -152.799863730332    
 Initial guess <Sx>= 0.0000 <Sy>= 0.0000 <Sz>= 0.5000 <S**2>= 0.7500 S= 0.5000
 Leave Link  401 at Thu Jan 24 17:04:12 2019, MaxMem=  134217728 cpu:       0.3
 (Enter /home/programs/G09_64/g09/l502.exe)
 UHF open shell SCF:
 Requested convergence on RMS density matrix=1.00D-08 within 128 cycles.
 Requested convergence on MAX density matrix=1.00D-06.
 Requested convergence on             energy=1.00D-06.
 No special actions if energy rises.
 Using DIIS extrapolation, IDIIS=  1040.
 Two-electron integral symmetry not used.
 Keep R1 and R2 ints in memory in canonical form, NReq=884165.
 IEnd=       19882 IEndB=       19882 NGot=   134217728 MDV=   134150703
 LenX=   134150703 LenY=   134149778
 Symmetry not used in FoFDir.
 MinBra= 0 MaxBra= 1 Meth= 1.
 IRaf=       0 NMat=   1 IRICut=       1 DoRegI=T DoRafI=F ISym2E= 0 JSym2E=0.

 Cycle   1  Pass 1  IDiag  1:
 E= -152.474360751521    
 DIIS: error= 4.16D-02 at cycle   1 NSaved=   1.
 NSaved= 1 IEnMin= 1 EnMin= -152.474360751521     IErMin= 1 ErrMin= 4.16D-02
 ErrMax= 4.16D-02 EMaxC= 1.00D-01 BMatC= 2.80D-01 BMatP= 2.80D-01
 IDIUse=3 WtCom= 5.84D-01 WtEn= 4.16D-01
 Coeff-Com:  0.100D+01
 Coeff-En:   0.100D+01
 Coeff:      0.100D+01
 Gap=     0.846 Goal=   None    Shift=    0.000
 Gap=     0.528 Goal=   None    Shift=    0.000
 GapD=    0.528 DampG=2.000 DampE=0.500 DampFc=1.0000 IDamp=-1.
 RMSDP=1.66D-02 MaxDP=1.07D-01              OVMax= 0.00D+00

 Cycle   2  Pass 1  IDiag  1:
 E= -152.555101748908     Delta-E=       -0.080740997387 Rises=F Damp=F
 DIIS: error= 1.05D-02 at cycle   2 NSaved=   2.
 NSaved= 2 IEnMin= 2 EnMin= -152.555101748908     IErMin= 2 ErrMin= 1.05D-02
 ErrMax= 1.05D-02 EMaxC= 1.00D-01 BMatC= 1.44D-02 BMatP= 2.80D-01
 IDIUse=3 WtCom= 8.95D-01 WtEn= 1.05D-01
 Coeff-Com:  0.510D-01 0.949D+00
 Coeff-En:   0.000D+00 0.100D+01
 Coeff:      0.457D-01 0.954D+00
 Gap=     0.828 Goal=   None    Shift=    0.000
 Gap=     0.563 Goal=   None    Shift=    0.000
 RMSDP=4.54D-03 MaxDP=3.96D-02 DE=-8.07D-02 OVMax= 0.00D+00

 Cycle   3  Pass 1  IDiag  1:
 E= -152.562610373958     Delta-E=       -0.007508625049 Rises=F Damp=F
 DIIS: error= 7.45D-03 at cycle   3 NSaved=   3.
 NSaved= 3 IEnMin= 3 EnMin= -152.562610373958     IErMin= 3 ErrMin= 7.45D-03
 ErrMax= 7.45D-03 EMaxC= 1.00D-01 BMatC= 2.86D-03 BMatP= 1.44D-02
 IDIUse=3 WtCom= 9.26D-01 WtEn= 7.45D-02
 Coeff-Com: -0.438D-01-0.140D+00 0.118D+01
 Coeff-En:   0.000D+00 0.000D+00 0.100D+01
 Coeff:     -0.405D-01-0.130D+00 0.117D+01
 Gap=     0.830 Goal=   None    Shift=    0.000
 Gap=     0.590 Goal=   None    Shift=    0.000
 RMSDP=2.74D-03 MaxDP=3.00D-02 DE=-7.51D-03 OVMax= 0.00D+00

 Cycle   4  Pass 1  IDiag  1:
 E= -152.565124251991     Delta-E=       -0.002513878033 Rises=F Damp=F
 DIIS: error= 3.40D-03 at cycle   4 NSaved=   4.
 NSaved= 4 IEnMin= 4 EnMin= -152.565124251991     IErMin= 4 ErrMin= 3.40D-03
 ErrMax= 3.40D-03 EMaxC= 1.00D-01 BMatC= 7.38D-04 BMatP= 2.86D-03
 IDIUse=3 WtCom= 9.66D-01 WtEn= 3.40D-02
 Coeff-Com:  0.122D-01-0.823D-01-0.699D+00 0.177D+01
 Coeff-En:   0.000D+00 0.000D+00 0.000D+00 0.100D+01
 Coeff:      0.118D-01-0.795D-01-0.675D+00 0.174D+01
 Gap=     0.841 Goal=   None    Shift=    0.000
 Gap=     0.606 Goal=   None    Shift=    0.000
 RMSDP=2.41D-03 MaxDP=2.60D-02 DE=-2.51D-03 OVMax= 0.00D+00

 Cycle   5  Pass 1  IDiag  1:
 E= -152.565974000393     Delta-E=       -0.000849748402 Rises=F Damp=F
 DIIS: error= 6.60D-04 at cycle   5 NSaved=   5.
 NSaved= 5 IEnMin= 5 EnMin= -152.565974000393     IErMin= 5 ErrMin= 6.60D-04
 ErrMax= 6.60D-04 EMaxC= 1.00D-01 BMatC= 4.52D-05 BMatP= 7.38D-04
 IDIUse=3 WtCom= 9.93D-01 WtEn= 6.60D-03
 Coeff-Com:  0.245D-02 0.339D-01-0.126D-01-0.174D+00 0.115D+01
 Coeff-En:   0.000D+00 0.000D+00 0.000D+00 0.000D+00 0.100D+01
 Coeff:      0.244D-02 0.336D-01-0.125D-01-0.173D+00 0.115D+01
 Gap=     0.839 Goal=   None    Shift=    0.000
 Gap=     0.609 Goal=   None    Shift=    0.000
 RMSDP=3.97D-04 MaxDP=3.46D-03 DE=-8.50D-04 OVMax= 0.00D+00

 Cycle   6  Pass 1  IDiag  1:
 E= -152.566013555913     Delta-E=       -0.000039555521 Rises=F Damp=F
 DIIS: error= 3.48D-04 at cycle   6 NSaved=   6.
 NSaved= 6 IEnMin= 6 EnMin= -152.566013555913     IErMin= 6 ErrMin= 3.48D-04
 ErrMax= 3.48D-04 EMaxC= 1.00D-01 BMatC= 1.08D-05 BMatP= 4.52D-05
 IDIUse=3 WtCom= 9.97D-01 WtEn= 3.48D-03
 Coeff-Com: -0.314D-02 0.589D-02 0.123D+00-0.271D+00-0.321D+00 0.147D+01
 Coeff-En:   0.000D+00 0.000D+00 0.000D+00 0.000D+00 0.000D+00 0.100D+01
 Coeff:     -0.313D-02 0.587D-02 0.123D+00-0.270D+00-0.320D+00 0.146D+01
 Gap=     0.840 Goal=   None    Shift=    0.000
 Gap=     0.608 Goal=   None    Shift=    0.000
 RMSDP=2.84D-04 MaxDP=2.28D-03 DE=-3.96D-05 OVMax= 0.00D+00

 Cycle   7  Pass 1  IDiag  1:
 E= -152.566026520842     Delta-E=       -0.000012964928 Rises=F Damp=F
 DIIS: error= 1.09D-04 at cycle   7 NSaved=   7.
 NSaved= 7 IEnMin= 7 EnMin= -152.566026520842     IErMin= 7 ErrMin= 1.09D-04
 ErrMax= 1.09D-04 EMaxC= 1.00D-01 BMatC= 1.26D-06 BMatP= 1.08D-05
 IDIUse=3 WtCom= 9.99D-01 WtEn= 1.09D-03
 Coeff-Com:  0.888D-03-0.558D-02-0.476D-01 0.120D+00 0.385D-01-0.777D+00
 Coeff-Com:  0.167D+01
 Coeff-En:   0.000D+00 0.000D+00 0.000D+00 0.000D+00 0.000D+00 0.000D+00
 Coeff-En:   0.100D+01
 Coeff:      0.887D-03-0.557D-02-0.476D-01 0.120D+00 0.384D-01-0.776D+00
 Coeff:      0.167D+01
 Gap=     0.840 Goal=   None    Shift=    0.000
 Gap=     0.609 Goal=   None    Shift=    0.000
 RMSDP=1.32D-04 MaxDP=9.70D-04 DE=-1.30D-05 OVMax= 0.00D+00

 Cycle   8  Pass 1  IDiag  1:
 E= -152.566028105918     Delta-E=       -0.000001585076 Rises=F Damp=F
 DIIS: error= 2.57D-05 at cycle   8 NSaved=   8.
 NSaved= 8 IEnMin= 8 EnMin= -152.566028105918     IErMin= 8 ErrMin= 2.57D-05
 ErrMax= 2.57D-05 EMaxC= 1.00D-01 BMatC= 6.48D-08 BMatP= 1.26D-06
 IDIUse=1 WtCom= 1.00D+00 WtEn= 0.00D+00
 Coeff-Com:  0.181D-03-0.347D-03-0.695D-02 0.187D-01 0.444D-02-0.437D-01
 Coeff-Com: -0.399D-01 0.107D+01
 Coeff:      0.181D-03-0.347D-03-0.695D-02 0.187D-01 0.444D-02-0.437D-01
 Coeff:     -0.399D-01 0.107D+01
 Gap=     0.840 Goal=   None    Shift=    0.000
 Gap=     0.609 Goal=   None    Shift=    0.000
 RMSDP=1.40D-05 MaxDP=9.97D-05 DE=-1.59D-06 OVMax= 0.00D+00

 Cycle   9  Pass 1  IDiag  1:
 E= -152.566028153263     Delta-E=       -0.000000047345 Rises=F Damp=F
 DIIS: error= 8.80D-06 at cycle   9 NSaved=   9.
 NSaved= 9 IEnMin= 9 EnMin= -152.566028153263     IErMin= 9 ErrMin= 8.80D-06
 ErrMax= 8.80D-06 EMaxC= 1.00D-01 BMatC= 1.39D-08 BMatP= 6.48D-08
 IDIUse=1 WtCom= 1.00D+00 WtEn= 0.00D+00
 Coeff-Com: -0.181D-03 0.738D-03 0.883D-02-0.226D-01-0.773D-02 0.118D+00
 Coeff-Com: -0.197D+00-0.561D+00 0.166D+01
 Coeff:     -0.181D-03 0.738D-03 0.883D-02-0.226D-01-0.773D-02 0.118D+00
 Coeff:     -0.197D+00-0.561D+00 0.166D+01
 Gap=     0.840 Goal=   None    Shift=    0.000
 Gap=     0.609 Goal=   None    Shift=    0.000
 RMSDP=9.68D-06 MaxDP=7.61D-05 DE=-4.73D-08 OVMax= 0.00D+00

 Cycle  10  Pass 1  IDiag  1:
 E= -152.566028167617     Delta-E=       -0.000000014354 Rises=F Damp=F
 DIIS: error= 4.36D-06 at cycle  10 NSaved=  10.
 NSaved=10 IEnMin=10 EnMin= -152.566028167617     IErMin=10 ErrMin= 4.36D-06
 ErrMax= 4.36D-06 EMaxC= 1.00D-01 BMatC= 2.01D-09 BMatP= 1.39D-08
 IDIUse=1 WtCom= 1.00D+00 WtEn= 0.00D+00
 Coeff-Com:  0.993D-04-0.411D-03-0.500D-02 0.120D-01 0.884D-02-0.830D-01
 Coeff-Com:  0.143D+00 0.306D+00-0.124D+01 0.186D+01
 Coeff:      0.993D-04-0.411D-03-0.500D-02 0.120D-01 0.884D-02-0.830D-01
 Coeff:      0.143D+00 0.306D+00-0.124D+01 0.186D+01
 Gap=     0.840 Goal=   None    Shift=    0.000
 Gap=     0.609 Goal=   None    Shift=    0.000
 RMSDP=4.15D-06 MaxDP=3.63D-05 DE=-1.44D-08 OVMax= 0.00D+00

 Cycle  11  Pass 1  IDiag  1:
 E= -152.566028169736     Delta-E=       -0.000000002119 Rises=F Damp=F
 DIIS: error= 1.44D-06 at cycle  11 NSaved=  11.
 NSaved=11 IEnMin=11 EnMin= -152.566028169736     IErMin=11 ErrMin= 1.44D-06
 ErrMax= 1.44D-06 EMaxC= 1.00D-01 BMatC= 2.25D-10 BMatP= 2.01D-09
 IDIUse=1 WtCom= 1.00D+00 WtEn= 0.00D+00
 Coeff-Com: -0.150D-04 0.321D-04 0.821D-03-0.145D-02-0.484D-02 0.229D-01
 Coeff-Com: -0.330D-01-0.104D+00 0.390D+00-0.775D+00 0.150D+01
 Coeff:     -0.150D-04 0.321D-04 0.821D-03-0.145D-02-0.484D-02 0.229D-01
 Coeff:     -0.330D-01-0.104D+00 0.390D+00-0.775D+00 0.150D+01
 Gap=     0.840 Goal=   None    Shift=    0.000
 Gap=     0.609 Goal=   None    Shift=    0.000
 RMSDP=1.35D-06 MaxDP=1.26D-05 DE=-2.12D-09 OVMax= 0.00D+00

 Cycle  12  Pass 1  IDiag  1:
 E= -152.566028169947     Delta-E=       -0.000000000211 Rises=F Damp=F
 DIIS: error= 3.38D-07 at cycle  12 NSaved=  12.
 NSaved=12 IEnMin=12 EnMin= -152.566028169947     IErMin=12 ErrMin= 3.38D-07
 ErrMax= 3.38D-07 EMaxC= 1.00D-01 BMatC= 1.60D-11 BMatP= 2.25D-10
 IDIUse=1 WtCom= 1.00D+00 WtEn= 0.00D+00
 Coeff-Com:  0.406D-05 0.414D-05-0.243D-03 0.188D-03 0.300D-02-0.109D-01
 Coeff-Com:  0.135D-01 0.528D-01-0.180D+00 0.374D+00-0.974D+00 0.172D+01
 Coeff:      0.406D-05 0.414D-05-0.243D-03 0.188D-03 0.300D-02-0.109D-01
 Coeff:      0.135D-01 0.528D-01-0.180D+00 0.374D+00-0.974D+00 0.172D+01
 Gap=     0.840 Goal=   None    Shift=    0.000
 Gap=     0.609 Goal=   None    Shift=    0.000
 RMSDP=3.45D-07 MaxDP=2.37D-06 DE=-2.11D-10 OVMax= 0.00D+00

 Cycle  13  Pass 1  IDiag  1:
 E= -152.566028169963     Delta-E=       -0.000000000015 Rises=F Damp=F
 DIIS: error= 8.94D-08 at cycle  13 NSaved=  13.
 NSaved=13 IEnMin=13 EnMin= -152.566028169963     IErMin=13 ErrMin= 8.94D-08
 ErrMax= 8.94D-08 EMaxC= 1.00D-01 BMatC= 1.46D-12 BMatP= 1.60D-11
 IDIUse=1 WtCom= 1.00D+00 WtEn= 0.00D+00
 Coeff-Com:  0.108D-05-0.150D-04-0.356D-04 0.288D-03-0.124D-02 0.289D-02
 Coeff-Com: -0.227D-02-0.176D-01 0.515D-01-0.118D+00 0.406D+00-0.102D+01
 Coeff-Com:  0.170D+01
 Coeff:      0.108D-05-0.150D-04-0.356D-04 0.288D-03-0.124D-02 0.289D-02
 Coeff:     -0.227D-02-0.176D-01 0.515D-01-0.118D+00 0.406D+00-0.102D+01
 Coeff:      0.170D+01
 Gap=     0.840 Goal=   None    Shift=    0.000
 Gap=     0.609 Goal=   None    Shift=    0.000
 RMSDP=1.13D-07 MaxDP=9.20D-07 DE=-1.54D-11 OVMax= 0.00D+00

 Cycle  14  Pass 1  IDiag  1:
 E= -152.566028169964     Delta-E=       -0.000000000002 Rises=F Damp=F
 DIIS: error= 2.09D-08 at cycle  14 NSaved=  14.
 NSaved=14 IEnMin=14 EnMin= -152.566028169964     IErMin=14 ErrMin= 2.09D-08
 ErrMax= 2.09D-08 EMaxC= 1.00D-01 BMatC= 7.17D-14 BMatP= 1.46D-12
 IDIUse=1 WtCom= 1.00D+00 WtEn= 0.00D+00
 Coeff-Com: -0.247D-06 0.530D-05 0.474D-05-0.103D-03 0.571D-03-0.146D-02
 Coeff-Com:  0.130D-02 0.820D-02-0.242D-01 0.533D-01-0.178D+00 0.470D+00
 Coeff-Com: -0.933D+00 0.160D+01
 Coeff:     -0.247D-06 0.530D-05 0.474D-05-0.103D-03 0.571D-03-0.146D-02
 Coeff:      0.130D-02 0.820D-02-0.242D-01 0.533D-01-0.178D+00 0.470D+00
 Coeff:     -0.933D+00 0.160D+01
 Gap=     0.840 Goal=   None    Shift=    0.000
 Gap=     0.609 Goal=   None    Shift=    0.000
 RMSDP=2.19D-08 MaxDP=1.81D-07 DE=-1.51D-12 OVMax= 0.00D+00

 Cycle  15  Pass 1  IDiag  1:
 E= -152.566028169964     Delta-E=        0.000000000000 Rises=F Damp=F
 DIIS: error= 9.56D-09 at cycle  15 NSaved=  15.
 NSaved=15 IEnMin=15 EnMin= -152.566028169964     IErMin=15 ErrMin= 9.56D-09
 ErrMax= 9.56D-09 EMaxC= 1.00D-01 BMatC= 8.45D-15 BMatP= 7.17D-14
 IDIUse=1 WtCom= 1.00D+00 WtEn= 0.00D+00
 Coeff-Com:  0.216D-06-0.204D-05-0.924D-05 0.496D-04-0.152D-03 0.300D-03
 Coeff-Com: -0.163D-03-0.181D-02 0.471D-02-0.114D-01 0.455D-01-0.142D+00
 Coeff-Com:  0.334D+00-0.893D+00 0.166D+01
 Coeff:      0.216D-06-0.204D-05-0.924D-05 0.496D-04-0.152D-03 0.300D-03
 Coeff:     -0.163D-03-0.181D-02 0.471D-02-0.114D-01 0.455D-01-0.142D+00
 Coeff:      0.334D+00-0.893D+00 0.166D+01
 Gap=     0.840 Goal=   None    Shift=    0.000
 Gap=     0.609 Goal=   None    Shift=    0.000
 RMSDP=9.39D-09 MaxDP=5.86D-08 DE=-1.42D-13 OVMax= 0.00D+00

 SCF Done:  E(UHF) =  -152.566028170     A.U. after   15 cycles
             Convg  =    0.9392D-08             -V/T =  2.0058
 <Sx>= 0.0000 <Sy>= 0.0000 <Sz>= 0.5000 <S**2>= 0.7891 S= 0.5194
 <L.S>= 0.000000000000E+00
 KE= 1.516934956556D+02 PE=-5.330216016929D+02 EE= 1.414259780123D+02
 Annihilation of the first spin contaminant:
 S**2 before annihilation     0.7891,   after     0.7502
 Leave Link  502 at Thu Jan 24 17:04:12 2019, MaxMem=  134217728 cpu:       0.1
 (Enter /home/programs/G09_64/g09/l801.exe)
 Range of M.O.s used for correlation:     1    22
 NBasis=    22 NAE=    14 NBE=    13 NFC=     0 NFV=     0
 NROrb=     22 NOA=    14 NOB=    13 NVA=     8 NVB=     9
 Leave Link  801 at Thu Jan 24 17:04:12 2019, MaxMem=  134217728 cpu:       0.0
 (Enter /home/programs/G09_64/g09/l1101.exe)
 Using compressed storage, NAtomX=    10.
 Will process  11 centers per pass.
 Leave Link 1101 at Thu Jan 24 17:04:12 2019, MaxMem=  134217728 cpu:       0.1
 (Enter /home/programs/G09_64/g09/l1102.exe)
 Symmetrizing basis deriv contribution to polar:
 IMax=3 JMax=2 DiffMx= 0.00D+00
 Leave Link 1102 at Thu Jan 24 17:04:12 2019, MaxMem=  134217728 cpu:       0.0
 (Enter /home/programs/G09_64/g09/l1110.exe)
 Forming Gx(P) for the SCF density, NAtomX=    10.
 Integral derivatives from FoFDir/FoFCou, PRISM(SPDF).
 Do as many integral derivatives as possible in FoFDir.
 G2DrvN: MDV=     134217544.
 G2DrvN: will do    11 centers at a time, making    1 passes doing MaxLOS=1.
 Calling FoFCou, ICntrl=  3107 FMM=F I1Cent=   0 AccDes= 0.00D+00.
 FoFCou: FMM=F IPFlag=           0 FMFlag=      100000 FMFlg1=           0
         NFxFlg=           0 DoJE=F BraDBF=F KetDBF=F FulRan=T
         Omega=  0.000000  0.000000  1.000000  0.000000  0.000000 ICntrl=    3107 IOpCl=  1
         NMat0=    1 NMatS0=    1 NMatT0=    0 NMatD0=    1 NMtDS0=    0 NMtDT0=    0
         I1Cent=           0 NGrid=           0.
 Symmetry not used in FoFCou.
 FoFDir/FoFCou used for L=0 through L=1.
 End of G2Drv Frequency-dependent properties file   721 does not exist.
 End of G2Drv Frequency-dependent properties file   722 does not exist.
 Leave Link 1110 at Thu Jan 24 17:04:12 2019, MaxMem=  134217728 cpu:       0.1
 (Enter /home/programs/G09_64/g09/l1002.exe)
 Minotr:  UHF open shell wavefunction.
          IDoAtm=1111111111
          Direct CPHF calculation.
          Differentiating once with respect to nuclear coordinates.
          Requested convergence is 1.0D-06 RMS, and 1.0D-05 maximum.
          Secondary convergence is 1.0D-12 RMS, and 1.0D-12 maximum.
          NewPWx=T KeepS1=F KeepF1=F KeepIn=T MapXYZ=F SortEE=F KeepMc=T.
          MDV=     134217624 using IRadAn=       2.
          Keep R1 and R2 ints in memory in canonical form, NReq=864982.
 Symmetry not used in FoFDir.
 MinBra= 0 MaxBra= 1 Meth= 1.
 IRaf=       0 NMat=   1 IRICut=       1 DoRegI=T DoRafI=F ISym2E= 0 JSym2E=0.
          Solving linear equations simultaneously, MaxMat=       0.
          There are    33 degrees of freedom in the 1st order CPHF.  IDoFFX=5.
     27 vectors produced by pass  0 Test12= 6.94D-12 3.03D-07 XBig12= 9.43D-02 1.39D-01.
 AX will form    27 AO Fock derivatives at one time.
     27 vectors produced by pass  1 Test12= 6.94D-12 3.03D-07 XBig12= 7.90D-04 7.55D-03.
     27 vectors produced by pass  2 Test12= 6.94D-12 3.03D-07 XBig12= 6.59D-06 6.57D-04.
     27 vectors produced by pass  3 Test12= 6.94D-12 3.03D-07 XBig12= 5.99D-08 5.45D-05.
     12 vectors produced by pass  4 Test12= 6.94D-12 3.03D-07 XBig12= 8.00D-10 5.80D-06.
      1 vectors produced by pass  5 Test12= 6.94D-12 3.03D-07 XBig12= 3.12D-12 3.10D-07.
 Inverted reduced A of dimension   121 with in-core refinement.
 End of Minotr Frequency-dependent properties file   721 does not exist.
 End of Minotr Frequency-dependent properties file   722 does not exist.
 Leave Link 1002 at Thu Jan 24 17:04:13 2019, MaxMem=  134217728 cpu:       0.1
 (Enter /home/programs/G09_64/g09/l601.exe)
 Copying SCF densities to generalized density rwf, IOpCl= 1 IROHF=0.

 **********************************************************************

            Population analysis using the SCF density.

 **********************************************************************

 Alpha  occ. eigenvalues --  -20.27110 -11.09211 -11.05024  -1.31541  -0.98705
 Alpha  occ. eigenvalues --   -0.81717  -0.65851  -0.59048  -0.58386  -0.52633
 Alpha  occ. eigenvalues --   -0.49207  -0.45596  -0.40162  -0.26290
 Alpha virt. eigenvalues --    0.57732   0.61929   0.66427   0.71822   0.74077
 Alpha virt. eigenvalues --    0.77318   0.79654   0.79873
  Beta  occ. eigenvalues --  -20.26961 -11.07339 -11.05158  -1.30433  -0.97032
  Beta  occ. eigenvalues --   -0.78647  -0.61059  -0.58416  -0.56451  -0.49911
  Beta  occ. eigenvalues --   -0.48374  -0.41180  -0.36174
  Beta virt. eigenvalues --    0.24692   0.59193   0.62854   0.68012   0.72821
  Beta virt. eigenvalues --    0.75355   0.78939   0.81514   0.87746
          Condensed to atoms (all electrons):
              1          2          3          4          5          6
     1  C    4.750347   0.364464  -0.017890   0.383556   0.381509   0.383184
     2  C    0.364464   4.879923   0.284331  -0.019824  -0.021479  -0.023093
     3  O   -0.017890   0.284331   7.811965   0.000619  -0.000547  -0.001103
     4  H    0.383556  -0.019824   0.000619   0.607672  -0.020395  -0.020512
     5  H    0.381509  -0.021479  -0.000547  -0.020395   0.614907  -0.022018
     6  H    0.383184  -0.023093  -0.001103  -0.020512  -0.022018   0.622308
     7  H   -0.022956   0.379834  -0.021648  -0.001791  -0.001744   0.001824
     8  H   -0.018054   0.193043  -0.011587  -0.001597   0.001214  -0.002131
     9  H   -0.004515  -0.045484   0.263781   0.000000   0.000026   0.000872
    10  H   -0.000835  -0.043745  -0.000171   0.000173  -0.000017   0.000145
              7          8          9         10
     1  C   -0.022956  -0.018054  -0.004515  -0.000835
     2  C    0.379834   0.193043  -0.045484  -0.043745
     3  O   -0.021648  -0.011587   0.263781  -0.000171
     4  H   -0.001791  -0.001597   0.000000   0.000173
     5  H   -0.001744   0.001214   0.000026  -0.000017
     6  H    0.001824  -0.002131   0.000872   0.000145
     7  H    0.611644  -0.015917   0.003995  -0.000669
     8  H   -0.015917   0.647029  -0.001088   0.179597
     9  H    0.003995  -0.001088   0.582693   0.000008
    10  H   -0.000669   0.179597   0.000008   0.908782
 Mulliken atomic charges:
              1
     1  C   -0.198810
     2  C    0.052029
     3  O   -0.307749
     4  H    0.072099
     5  H    0.068544
     6  H    0.060524
     7  H    0.067429
     8  H    0.029490
     9  H    0.199712
    10  H   -0.043268
 Sum of Mulliken atomic charges =   0.00000
 Mulliken charges with hydrogens summed into heavy atoms:
              1
     1  C    0.002357
     2  C    0.105680
     3  O   -0.108037
 Sum of Mulliken charges with hydrogens summed into heavy atoms =   0.00000
          Atomic-Atomic Spin Densities.
              1          2          3          4          5          6
     1  C   -0.048672  -0.016749   0.000210   0.001857   0.000458   0.002190
     2  C   -0.016749   0.738532  -0.036696  -0.001598  -0.004351  -0.002367
     3  O    0.000210  -0.036696   0.062668   0.000007   0.000340   0.000006
     4  H    0.001857  -0.001598   0.000007   0.005134  -0.001235   0.000176
     5  H    0.000458  -0.004351   0.000340  -0.001235   0.032148  -0.001783
     6  H    0.002190  -0.002367   0.000006   0.000176  -0.001783   0.008267
     7  H    0.001730  -0.011568   0.000620   0.000244  -0.000508   0.000073
     8  H    0.003046   0.032348   0.001142  -0.000030  -0.000066   0.000047
     9  H    0.000248  -0.001821  -0.000145   0.000005  -0.000095   0.000134
    10  H    0.001956  -0.056629   0.001565   0.000310  -0.000119   0.000466
              7          8          9         10
     1  C    0.001730   0.003046   0.000248   0.001956
     2  C   -0.011568   0.032348  -0.001821  -0.056629
     3  O    0.000620   0.001142  -0.000145   0.001565
     4  H    0.000244  -0.000030   0.000005   0.000310
     5  H   -0.000508  -0.000066  -0.000095  -0.000119
     6  H    0.000073   0.000047   0.000134   0.000466
     7  H   -0.033814   0.003530   0.000035   0.001740
     8  H    0.003530  -0.268601   0.000032  -0.026768
     9  H    0.000035   0.000032  -0.000986   0.000201
    10  H    0.001740  -0.026768   0.000201   0.720956
 Mulliken atomic spin densities:
              1
     1  C   -0.053727
     2  C    0.639100
     3  O    0.029717
     4  H    0.004869
     5  H    0.024789
     6  H    0.007208
     7  H   -0.037920
     8  H   -0.255322
     9  H   -0.002392
    10  H    0.643678
 Sum of Mulliken atomic spin densities =   1.00000
 APT atomic charges:
              1
     1  C   -1.011321
     2  C   -0.280085
     3  O   -0.542651
     4  H    0.411506
     5  H    0.324132
     6  H    0.301411
     7  H    0.338182
     8  H   -0.086993
     9  H    0.394667
    10  H    0.151152
 Sum of APT charges=   0.00000
 APT Atomic charges with hydrogens summed into heavy atoms:
              1
     1  C    0.025729
     2  C    0.122256
     3  O   -0.147984
     4  H    0.000000
     5  H    0.000000
     6  H    0.000000
     7  H    0.000000
     8  H    0.000000
     9  H    0.000000
    10  H    0.000000
 Sum of APT charges=   0.00000
 Electronic spatial extent (au):  <R**2>=            216.2099
 Charge=              0.0000 electrons
 Dipole moment (field-independent basis, Debye):
    X=             -1.1499    Y=             -0.4995    Z=              0.7283  Tot=              1.4499
 Quadrupole moment (field-independent basis, Debye-Ang):
   XX=            -21.3392   YY=            -20.4648   ZZ=            -17.9290
   XY=             -0.0717   XZ=              1.2927   YZ=             -1.3609
 Traceless Quadrupole moment (field-independent basis, Debye-Ang):
   XX=             -1.4282   YY=             -0.5538   ZZ=              1.9820
   XY=             -0.0717   XZ=              1.2927   YZ=             -1.3609
 Octapole moment (field-independent basis, Debye-Ang**2):
  XXX=              7.4336  YYY=             -9.5878  ZZZ=             -0.4235  XYY=              3.3817
  XXY=             -1.5936  XXZ=              0.7020  XZZ=              4.8922  YZZ=             -2.9742
  YYZ=             -1.0236  XYZ=             -0.9914
 Hexadecapole moment (field-independent basis, Debye-Ang**3):
 XXXX=           -143.2500 YYYY=            -82.7756 ZZZZ=            -36.7932 XXXY=             -3.9787
 XXXZ=              3.3867 YYYX=             -2.0670 YYYZ=             -2.0811 ZZZX=              1.1192
 ZZZY=             -2.8811 XXYY=            -35.7421 XXZZ=            -28.6592 YYZZ=            -19.3902
 XXYZ=             -1.5356 YYXZ=              1.3482 ZZXY=             -1.2481
 N-N= 8.733609985508D+01 E-N=-7.947075354644D+02  KE= 2.267911325371D+02
  Exact polarizability:   0.000   0.000   0.000   0.000   0.000   0.000
 Approx polarizability:   9.819  -1.719  15.105   0.206   1.462  12.739
                          Isotropic Fermi Contact Couplings
        Atom                 a.u.       MegaHertz       Gauss      10(-4) cm-1
     1  C(13)             -0.02024     -22.75731      -8.12038      -7.59102
     2  C(13)              0.23104     259.73012      92.67816      86.63664
     3  O(17)              0.01133      -6.86841      -2.45082      -2.29106
     4  H(1)               0.00198       8.86295       3.16252       2.95636
     5  H(1)               0.01215      54.31596      19.38128      18.11785
     6  H(1)               0.00312      13.92664       4.96937       4.64543
     7  H(1)              -0.01283     -57.35787     -20.46671     -19.13253
     8  H(1)              -0.10136    -453.05229    -161.66032    -151.12198
     9  H(1)              -0.00048      -2.13802      -0.76290      -0.71317
    10  H(1)               0.27417    1225.52028     437.29610     408.78956
 --------------------------------------------------------
       Center         ----  Spin Dipole Couplings  ----
                      3XX-RR        3YY-RR        3ZZ-RR
 --------------------------------------------------------
     1   Atom        0.012059     -0.003238     -0.008820
     2   Atom       -0.307099      0.364710     -0.057611
     3   Atom       -0.173983      0.216929     -0.042946
     4   Atom        0.012225     -0.005644     -0.006581
     5   Atom        0.004767      0.000398     -0.005165
     6   Atom        0.002411      0.001891     -0.004303
     7   Atom       -0.046419     -0.015798      0.062217
     8   Atom       -0.142733      0.183063     -0.040330
     9   Atom       -0.010282      0.004429      0.005853
    10   Atom        0.024896     -0.028235      0.003338
 --------------------------------------------------------
                        XY            XZ            YZ
 --------------------------------------------------------
     1   Atom        0.012278     -0.003948     -0.005505
     2   Atom        0.039328      0.021256      0.397102
     3   Atom        0.018085     -0.008145      0.118331
     4   Atom        0.005683     -0.000391      0.003044
     5   Atom        0.008209     -0.000341     -0.001793
     6   Atom        0.007305     -0.008797     -0.004141
     7   Atom        0.003620     -0.006593     -0.017136
     8   Atom        0.000784      0.000758      0.181631
     9   Atom       -0.007994      0.006741     -0.013476
    10   Atom       -0.000355     -0.000167     -0.033832
 --------------------------------------------------------


 ---------------------------------------------------------------------------------
              Anisotropic Spin Dipole Couplings in Principal Axis System
 ---------------------------------------------------------------------------------

       Atom             a.u.   MegaHertz   Gauss  10(-4) cm-1        Axes

              Baa    -0.0129    -1.734    -0.619    -0.579 -0.2243  0.6807  0.6973
     1 C(13)  Bbb    -0.0073    -0.974    -0.347    -0.325  0.4851 -0.5426  0.6857
              Bcc     0.0202     2.708     0.966     0.903  0.8452  0.4921 -0.2085
 
              Baa    -0.3096   -41.544   -14.824   -13.858  0.9875 -0.1187  0.1038
     2 C(13)  Bbb    -0.2959   -39.706   -14.168   -13.245 -0.1499 -0.5028  0.8513
              Bcc     0.6055    81.251    28.992    27.102  0.0489  0.8562  0.5143
 
              Baa    -0.1767    12.785     4.562     4.265  0.9869 -0.0864  0.1365
     3 O(17)  Bbb    -0.0865     6.258     2.233     2.087 -0.1584 -0.3505  0.9231
              Bcc     0.2632   -19.044    -6.795    -6.352  0.0319  0.9326  0.3596
 
              Baa    -0.0100    -5.334    -1.903    -1.779 -0.1961  0.7208 -0.6648
     4 H(1)   Bbb    -0.0039    -2.077    -0.741    -0.693 -0.2050  0.6329  0.7466
              Bcc     0.0139     7.411     2.645     2.472  0.9589  0.2827  0.0237
 
              Baa    -0.0068    -3.652    -1.303    -1.218 -0.4457  0.6559  0.6092
     5 H(1)   Bbb    -0.0043    -2.319    -0.827    -0.773  0.4276 -0.4419  0.7886
              Bcc     0.0112     5.971     2.131     1.992  0.7865  0.6120 -0.0835
 
              Baa    -0.0104    -5.562    -1.985    -1.855  0.5957 -0.0847  0.7987
     6 H(1)   Bbb    -0.0038    -2.002    -0.714    -0.668 -0.4115  0.8218  0.3941
              Bcc     0.0142     7.564     2.699     2.523  0.6898  0.5634 -0.4546
 
              Baa    -0.0471   -25.104    -8.958    -8.374  0.9949 -0.0901  0.0459
     7 H(1)   Bbb    -0.0192   -10.257    -3.660    -3.421  0.0784  0.9743  0.2113
              Bcc     0.0663    35.361    12.618    11.795 -0.0638 -0.2067  0.9763
 
              Baa    -0.1428   -76.200   -27.190   -25.418  0.9599  0.1347 -0.2458
     8 H(1)   Bbb    -0.1418   -75.647   -26.993   -25.233  0.2803 -0.4690  0.8376
              Bcc     0.2846   151.847    54.183    50.651  0.0025  0.8729  0.4879
 
              Baa    -0.0139    -7.390    -2.637    -2.465  0.9338  0.3486 -0.0810
     9 H(1)   Bbb    -0.0081    -4.341    -1.549    -1.448 -0.1841  0.6620  0.7265
              Bcc     0.0220    11.731     4.186     3.913  0.3069 -0.6634  0.6824
 
              Baa    -0.0498   -26.562    -9.478    -8.860  0.0052  0.8434  0.5372
    10 H(1)   Bbb     0.0248    13.254     4.729     4.421  0.6624  0.3995 -0.6337
              Bcc     0.0249    13.308     4.749     4.439  0.7492 -0.3591  0.5566
 

 ---------------------------------------------------------------------------------

 No NMR shielding tensors so no spin-rotation constants.
 Leave Link  601 at Thu Jan 24 17:04:13 2019, MaxMem=  134217728 cpu:       0.2
 (Enter /home/programs/G09_64/g09/l701.exe)
 Compute integral second derivatives.
 ... and contract with generalized density number  0.
 Leave Link  701 at Thu Jan 24 17:04:13 2019, MaxMem=  134217728 cpu:       0.2
 (Enter /home/programs/G09_64/g09/l702.exe)
 L702 exits ... SP integral derivatives will be done elsewhere.
 Leave Link  702 at Thu Jan 24 17:04:13 2019, MaxMem=  134217728 cpu:       0.0
 (Enter /home/programs/G09_64/g09/l703.exe)
 Compute integral second derivatives, UseDBF=F ICtDFT=           0.
 Integral derivatives from FoFDir, PRISM(SPDF).
 Calling FoFJK, ICntrl=    100147 FMM=F ISym2X=0 I1Cent= 0 IOpClX= 1 NMat=1 NMatS=1 NMatT=0.
 FoFCou: FMM=F IPFlag=           0 FMFlag=      100000 FMFlg1=         800
         NFxFlg=           0 DoJE=F BraDBF=F KetDBF=F FulRan=T
         Omega=  0.000000  0.000000  1.000000  0.000000  0.000000 ICntrl=  100147 IOpCl=  1
         NMat0=    1 NMatS0=    1 NMatT0=    0 NMatD0=    1 NMtDS0=    0 NMtDT0=    0
         I1Cent=           0 NGrid=           0.
 Symmetry not used in FoFCou.
 Leave Link  703 at Thu Jan 24 17:04:13 2019, MaxMem=  134217728 cpu:       0.2
 (Enter /home/programs/G09_64/g09/l716.exe)
 Dipole        =-4.52396731D-01-1.96524319D-01 2.86553797D-01
 Polarizability= 0.00000000D+00 0.00000000D+00 0.00000000D+00
                 0.00000000D+00 0.00000000D+00 0.00000000D+00
 -------------------------------------------------------------------
 Center     Atomic                   Forces (Hartrees/Bohr)
 Number     Number              X              Y              Z
 -------------------------------------------------------------------
      1        6          -0.031371706   -0.014616642    0.005362403
      2        6           0.004152002    0.029134972    0.002879323
      3        8           0.043157576   -0.008143101   -0.037850761
      4        1           0.000063813   -0.001062810   -0.000537029
      5        1          -0.001366009    0.000513678    0.000761305
      6        1           0.000634237   -0.000304070   -0.001842468
      7        1          -0.002907045   -0.001098226   -0.008876841
      8        1          -0.000145752    0.014839500    0.010538823
      9        1          -0.012135488   -0.008526561    0.037722228
     10        1          -0.000081628   -0.010736739   -0.008156984
 -------------------------------------------------------------------
 Cartesian Forces:  Max     0.043157576 RMS     0.016036482
 Force constants in Cartesian coordinates: 
                1             2             3             4             5 
      1  0.806694D+00
      2 -0.305639D-01  0.826492D+00
      3  0.170161D-01 -0.655729D-03  0.829287D+00
      4 -0.299538D+00 -0.112031D+00  0.581512D-01  0.811632D+00
      5 -0.930278D-01 -0.147081D+00  0.435626D-01 -0.488391D-01  0.392748D+00
      6  0.626837D-01  0.521247D-01 -0.133010D+00 -0.150871D-01 -0.262608D+00
      7 -0.518121D-01  0.319086D-01 -0.138541D-01 -0.361267D+00  0.145472D+00
      8 -0.974632D-02  0.135810D-01 -0.180547D-02  0.212388D+00 -0.149638D+00
      9  0.528401D-02 -0.490747D-02  0.840235D-02 -0.108309D+00  0.973506D-01
     10 -0.299667D+00  0.175471D+00 -0.781535D-01 -0.244670D-01  0.251508D-01
     11  0.174907D+00 -0.211885D+00  0.592025D-01 -0.184757D-01  0.155579D-01
     12 -0.774071D-01  0.583926D-01 -0.105017D+00  0.102660D-01 -0.919865D-02
     13 -0.798683D-01 -0.356522D-01 -0.215078D-01 -0.560559D-02 -0.387100D-01
     14 -0.319387D-01 -0.373394D+00 -0.151420D+00 -0.229279D-02 -0.145249D-01
     15 -0.182589D-01 -0.148141D+00 -0.156101D+00  0.184087D-02  0.139706D-01
     16 -0.783164D-01  0.296636D-03  0.137143D-01  0.443956D-03 -0.734547D-02
     17 -0.475038D-03 -0.864988D-01  0.481688D-01  0.696516D-03 -0.411732D-02
     18  0.112423D-01  0.480958D-01 -0.446438D+00 -0.122199D-02  0.161497D-02
     19  0.119368D-02 -0.550854D-02  0.384817D-01 -0.760837D-01 -0.736385D-02
     20 -0.154420D-02 -0.142116D-02  0.197696D-01 -0.579617D-02 -0.700101D-01
     21 -0.390612D-02 -0.345044D-02 -0.355871D-04  0.326109D-01  0.109665D+00
     22 -0.263095D-02 -0.235915D-01 -0.115651D-01 -0.461891D-01 -0.205690D-02
     23 -0.102734D-01 -0.312730D-01 -0.183050D-01 -0.159433D-01  0.149125D+00
     24 -0.174793D-02 -0.417672D-02 -0.252640D-02 -0.665818D-02  0.114408D+00
     25  0.359209D-02 -0.439538D-03 -0.211102D-02 -0.728369D-02  0.274247D-01
     26 -0.178741D-02  0.233469D-02 -0.270964D-02 -0.107231D-01 -0.176510D-01
     27  0.275423D-02 -0.283372D-02  0.265198D-02  0.270959D-01 -0.103792D-01
     28  0.352249D-03  0.110718D-03 -0.171695D-03  0.835751D-02 -0.704422D-03
     29  0.444977D-02  0.914538D-02  0.419282D-02  0.101689D-02 -0.154409D+00
     30  0.233979D-02  0.555236D-02  0.278593D-02  0.131178D-02 -0.983852D-01
                6             7             8             9            10 
      6  0.767311D+00
      7 -0.325102D-01  0.460940D+00
      8  0.725999D-01 -0.219476D+00  0.249128D+00
      9 -0.140457D+00  0.631285D-02 -0.332630D+00  0.796082D+00
     10 -0.140720D-01 -0.548821D-02 -0.336698D-02  0.234572D-02  0.311824D+00
     11 -0.815764D-02 -0.554500D-02 -0.957684D-03  0.143676D-02 -0.183675D+00
     12  0.406730D-02  0.345819D-02  0.123505D-02  0.172588D-03  0.817131D-01
     13 -0.174772D-01  0.348856D-02  0.259993D-02  0.443476D-03  0.824546D-02
     14 -0.660525D-02  0.132210D-02  0.183969D-02  0.252269D-03 -0.905817D-02
     15  0.745466D-02 -0.368552D-03 -0.435641D-03 -0.131022D-03  0.184863D-02
     16  0.441886D-01  0.347300D-02 -0.495829D-03 -0.276249D-03  0.549148D-02
     17  0.223065D-01  0.153193D-02 -0.713897D-04 -0.112130D-02 -0.487818D-02
     18 -0.477610D-02 -0.994027D-03 -0.600525D-03  0.945760D-03  0.521159D-02
     19  0.383120D-01  0.501109D-02  0.116993D-01 -0.437370D-01  0.219272D-02
     20  0.881552D-01  0.124791D-03 -0.658080D-02  0.285862D-01  0.359412D-03
     21 -0.443935D+00 -0.376002D-02  0.358733D-02 -0.611100D-02  0.114367D-03
     22 -0.161513D-03 -0.899088D-02  0.273636D-01  0.763557D-02  0.114277D-02
     23  0.908838D-01  0.356478D-01 -0.471755D-01 -0.652160D-02  0.100680D-02
     24 -0.540910D-02  0.119977D-01 -0.103315D-01  0.568990D-02  0.128361D-03
     25 -0.660869D-01 -0.459297D-01 -0.201725D-01  0.130356D+00  0.503426D-03
     26  0.342634D-01  0.185220D-01 -0.736706D-01  0.216185D+00 -0.707535D-03
     27 -0.100330D-01  0.351977D-01  0.260735D+00 -0.665247D+00  0.100350D-02
     28  0.210613D-03  0.574784D-03 -0.792924D-03 -0.551056D-04  0.221773D-03
     29 -0.829624D-01 -0.950830D-02  0.135447D-01  0.136948D-02 -0.301621D-03
     30 -0.412125D-01 -0.547952D-02  0.764588D-02  0.653631D-03 -0.139693D-03
               11            12            13            14            15 
     11  0.212608D+00
     12 -0.642006D-01  0.974147D-01
     13  0.307671D-01  0.194968D-01  0.761342D-01
     14 -0.148084D-01 -0.129081D-01  0.408631D-01  0.387531D+00
     15  0.153348D-01  0.721123D-02  0.183017D-01  0.160294D+00  0.151466D+00
     16  0.108818D-02 -0.368900D-01 -0.126590D-03  0.180768D-02 -0.456023D-02
     17 -0.106251D-02  0.271713D-01  0.136762D-02  0.114487D-01 -0.424211D-01
     18 -0.356653D-02 -0.439535D-02  0.594981D-03  0.953173D-02 -0.114933D-01
     19  0.559726D-03 -0.652482D-03  0.160356D-02  0.902181D-03 -0.818908D-03
     20  0.327218D-03 -0.642629D-03  0.183032D-02  0.131344D-02 -0.271536D-03
     21 -0.166198D-03  0.460182D-03 -0.302620D-03  0.588922D-04  0.728708D-03
     22  0.717814D-04 -0.206958D-03 -0.371477D-02 -0.163106D-02  0.195420D-02
     23  0.514627D-03 -0.672904D-04 -0.350830D-02  0.913739D-03  0.261066D-02
     24 -0.258068D-03 -0.449579D-04  0.348481D-03  0.960003D-03  0.144248D-02
     25  0.104962D-03  0.131295D-03 -0.328714D-03 -0.227290D-03  0.507625D-04
     26 -0.461896D-03  0.604594D-04 -0.293069D-03 -0.209764D-03 -0.311190D-03
     27  0.224758D-03  0.703959D-04 -0.263937D-03  0.187047D-04 -0.100681D-03
     28  0.197176D-03  0.911502D-04  0.172172D-03  0.252853D-03  0.104266D-04
     29  0.167774D-03  0.157832D-03  0.735479D-03 -0.109016D-03 -0.629131D-03
     30  0.150268D-03  0.605884D-04  0.366034D-03 -0.181808D-03 -0.477497D-03
               16            17            18            19            20 
     16  0.747911D-01
     17  0.475104D-02  0.787677D-01
     18 -0.154812D-01 -0.542986D-01  0.464513D+00
     19 -0.643151D-02 -0.379278D-02  0.227986D-03  0.786882D-01
     20 -0.258087D-02 -0.297614D-03  0.678860D-04  0.793973D-03  0.821292D-01
     21 -0.103354D-03  0.783066D-04  0.889931D-03 -0.259962D-01 -0.109521D+00
     22  0.914916D-03  0.603857D-03 -0.242352D-03  0.144527D-02  0.146800D-02
     23  0.225516D-02  0.116973D-02 -0.114342D-02 -0.339748D-02 -0.132188D-01
     24  0.549510D-03  0.704602D-03  0.226886D-03 -0.336010D-02 -0.340760D-01
     25 -0.289258D-03  0.293833D-04  0.686605D-03 -0.748385D-02  0.526989D-02
     26  0.666120D-03  0.611581D-03 -0.143620D-03  0.485756D-02 -0.303270D-03
     27 -0.705170D-03 -0.337978D-03  0.243625D-03 -0.312097D-02  0.258020D-02
     28  0.493202D-04  0.165665D-03 -0.239156D-04 -0.135452D-03  0.748654D-04
     29 -0.442642D-03  0.499179D-04  0.442289D-03  0.124990D-02  0.806188D-02
     30 -0.436233D-03 -0.250570D-03  0.284068D-03  0.663952D-03  0.535202D-02
               21            22            23            24            25 
     21  0.457446D+00
     22  0.145133D-02  0.851214D-01
     23 -0.381576D-02 -0.397883D-02 -0.163689D+00
     24 -0.137882D-01 -0.914229D-03 -0.141636D+00 -0.228548D-02
     25  0.525319D-05  0.924434D-03 -0.259360D-02 -0.509909D-03  0.563288D-01
     26 -0.206138D-03 -0.282881D-03  0.296261D-02  0.227798D-02 -0.100041D-01
     27  0.119515D-02  0.105861D-02 -0.213497D-02  0.112870D-03 -0.629568D-01
     28 -0.113563D-03 -0.280232D-01  0.785156D-03  0.166321D-03 -0.334899D-04
     29  0.377026D-02  0.203400D-02  0.100670D+00  0.721284D-01  0.608135D-03
     30  0.315039D-02  0.990421D-03  0.801300D-01  0.165820D-01  0.434604D-03
               26            27            28            29            30 
     26  0.871981D-01
     27 -0.248658D+00  0.670608D+00
     28 -0.247470D-03 -0.630882D-04  0.184643D-01
     29 -0.810464D-03  0.786091D-03  0.158384D-03  0.236884D-01
     30 -0.757389D-03  0.499494D-03 -0.511433D-04  0.744430D-03  0.176738D-01
 Force constants in internal coordinates: 
                1             2             3             4             5 
      1  0.469883D+00
      2 -0.729893D-03  0.480643D+00
      3  0.296554D-02 -0.472426D-02  0.473592D+00
      4  0.103908D-02 -0.461597D-02 -0.457570D-02  0.472649D+00
      5  0.183982D-01 -0.165406D-02 -0.320821D-03  0.230755D-03  0.611334D+00
      6 -0.274785D-02  0.229651D-03 -0.290517D-04 -0.714752D-03  0.822044D-02
      7  0.828636D-02 -0.184188D-03 -0.168589D-02 -0.635312D-03  0.336152D-01
      8 -0.138633D-03 -0.668944D-03 -0.852073D-04  0.321406D-03 -0.269563D-01
      9 -0.748828D-02  0.339990D-03  0.424719D-03  0.558193D-03 -0.151421D-01
     10  0.165235D-01  0.179249D-02 -0.529983D-02 -0.545884D-02  0.693029D-02
     11  0.160620D-01 -0.500961D-02  0.176034D-02 -0.516164D-02 -0.231156D-02
     12  0.181799D-01 -0.480341D-02 -0.490251D-02  0.236148D-02 -0.440292D-02
     13 -0.173433D-01  0.411609D-02  0.430092D-02  0.138817D-04 -0.116010D-02
     14 -0.176978D-01  0.417279D-02 -0.119448D-03  0.423086D-02 -0.901162D-03
     15 -0.179813D-01  0.129410D-03  0.455698D-02  0.442443D-02  0.184278D-02
     16  0.178478D-01  0.391584D-02 -0.262335D-02 -0.232921D-02  0.200316D-01
     17  0.101734D-01 -0.218436D-02 -0.755628D-03  0.221624D-02 -0.223808D-01
     18  0.601538D-02 -0.179284D-02  0.201697D-02 -0.699163D-03 -0.186324D-01
     19 -0.173460D-01 -0.723861D-03  0.130898D-02  0.217779D-03  0.104802D-01
     20 -0.127068D-01 -0.260553D-03  0.484311D-03  0.813497D-03  0.866639D-02
     21 -0.753343D-02  0.730332D-03 -0.455911D-04 -0.131839D-04  0.640445D-04
     22 -0.510188D-02 -0.708275D-03  0.757512D-04  0.128513D-02  0.761104D-01
     23 -0.218009D-02 -0.127435D-03 -0.517806D-03 -0.125140D-03  0.942478D-03
     24 -0.489293D-03  0.486559D-04  0.172474D-04 -0.205631D-04 -0.138343D-02
     25 -0.631010D-03  0.223926D-03 -0.269741D-02  0.305148D-02 -0.151724D-02
     26  0.754019D-03  0.794837D-03 -0.400492D-02  0.328089D-02  0.113842D-01
     27  0.383225D-03 -0.507139D-03 -0.318429D-02  0.392328D-02 -0.110790D-01
     28 -0.920980D-03  0.329101D-02  0.349904D-03 -0.393633D-02  0.980819D-04
     29  0.464048D-03  0.386192D-02 -0.957607D-03 -0.370693D-02  0.129995D-01
     30  0.932547D-04  0.255995D-02 -0.136968D-03 -0.306454D-02 -0.946368D-02
     31 -0.836357D-03 -0.305819D-02  0.399728D-02 -0.217493D-03 -0.203923D-02
     32  0.548672D-03 -0.248728D-02  0.268977D-02  0.119132D-04  0.108622D-01
     33  0.177879D-03 -0.378925D-02  0.351041D-02  0.654301D-03 -0.116010D-01
     34  0.193294D-02 -0.562780D-04 -0.134171D-02  0.941533D-03 -0.428570D-03
     35 -0.114494D-01  0.346118D-03  0.729520D-03 -0.382055D-03  0.427456D-02
     36  0.118878D-01 -0.220036D-04 -0.906387D-04 -0.864728D-03 -0.509442D-02
                6             7             8             9            10 
      6  0.488563D+00
      7  0.556545D-04  0.679472D-01
      8 -0.910004D-03 -0.155384D-02  0.766434D+00
      9 -0.214971D-02  0.168536D+00  0.117048D-02  0.226942D-01
     10 -0.820092D-03 -0.137362D-02 -0.169572D-02  0.274283D-03  0.140584D+00
     11 -0.201700D-02  0.505858D-02  0.155648D-03 -0.169778D-02 -0.245352D-01
     12  0.232756D-02 -0.367046D-02  0.165826D-02  0.104699D-02 -0.246597D-01
     13  0.716879D-03 -0.984415D-03  0.527941D-03  0.531320D-03 -0.564168D-01
     14 -0.239889D-03  0.131613D-02 -0.455923D-04 -0.504439D-03 -0.553354D-01
     15  0.764068D-04 -0.396217D-03 -0.602985D-03  0.379780D-03  0.164745D-01
     16 -0.483957D-02 -0.927788D-02 -0.107707D-01  0.623953D-02  0.286878D-01
     17  0.192782D-02 -0.915394D-02  0.858374D-03  0.491991D-02 -0.127134D-01
     18 -0.205535D-02  0.652808D-02  0.265306D-02 -0.478868D-02 -0.901327D-02
     19  0.528781D-02  0.228678D-02  0.813119D-02 -0.135426D-02 -0.789704D-02
     20  0.722732D-04  0.677901D-02  0.976626D-03 -0.409020D-02 -0.633820D-02
     21 -0.305542D-03  0.584461D-02 -0.100115D-02 -0.271543D-02  0.460212D-02
     22  0.101621D-02 -0.480162D-02  0.274691D-01  0.194377D-02 -0.192640D-02
     23  0.756217D-03  0.138935D-02 -0.372874D-04  0.170544D-02 -0.355267D-03
     24  0.573444D-03  0.165399D-02 -0.101075D-03  0.172058D-02  0.353466D-03
     25 -0.254710D-02  0.647341D-02 -0.193237D-02 -0.438650D-02 -0.372700D-03
     26  0.242986D-02 -0.779719D-02  0.531986D-03  0.429261D-02  0.317452D-02
     27  0.173831D-02 -0.120553D-02  0.138634D-02  0.472358D-03 -0.309955D-02
     28 -0.351447D-02  0.764911D-02 -0.229026D-02 -0.465243D-02  0.577546D-02
     29  0.146249D-02 -0.662149D-02  0.174095D-03  0.402668D-02  0.932268D-02
     30  0.770943D-03 -0.298338D-04  0.102845D-02  0.206428D-03  0.304861D-02
     31 -0.320868D-02  0.806441D-02 -0.184453D-02 -0.460391D-02 -0.612823D-02
     32  0.176829D-02 -0.620619D-02  0.619822D-03  0.407520D-02 -0.258101D-02
     33  0.107674D-02  0.385467D-03  0.147418D-02  0.254949D-03 -0.885508D-02
     34  0.277989D-02 -0.927901D-02  0.131686D-02  0.550058D-02 -0.118894D-02
     35 -0.663809D-03  0.923289D-02  0.177100D-02 -0.539261D-02 -0.454197D-03
     36 -0.292938D-02 -0.192921D-02 -0.151285D-02  0.388695D-03  0.111712D-02
               11            12            13            14            15 
     11  0.141514D+00
     12 -0.267545D-01  0.147442D+00
     13 -0.557114D-01  0.168668D-01  0.727004D-01
     14  0.164413D-01 -0.577830D-01  0.135414D-01  0.727975D-01
     15 -0.558481D-01 -0.587023D-01  0.135139D-01  0.144455D-01  0.744498D-01
     16 -0.123175D-01 -0.136426D-01 -0.544494D-02 -0.566297D-02  0.831647D-02
     17 -0.418185D-02  0.191610D-01  0.493088D-02 -0.182094D-02 -0.538935D-02
     18  0.139348D-01 -0.400742D-02 -0.155373D-02  0.380234D-02 -0.331812D-02
     19  0.733005D-02 -0.336737D-02  0.777901D-03  0.398813D-02 -0.726767D-03
     20 -0.968045D-03  0.566288D-02  0.226992D-02  0.801189D-03 -0.133281D-02
     21 -0.243924D-02 -0.292154D-02 -0.529648D-03 -0.411855D-03  0.174419D-02
     22  0.776353D-03  0.135787D-02  0.548241D-03 -0.301309D-04 -0.738691D-03
     23 -0.199007D-03 -0.449913D-03  0.406795D-03  0.186095D-03  0.452981D-03
     24  0.783150D-04 -0.323862D-03 -0.164790D-03 -0.212694D-04  0.721097D-04
     25 -0.375810D-02  0.451104D-02 -0.956686D-02  0.963294D-02 -0.337496D-03
     26 -0.877468D-02  0.499806D-02 -0.887749D-02  0.832795D-02  0.134009D-02
     27 -0.515951D-02  0.842124D-02 -0.805140D-02  0.928625D-02 -0.125825D-02
     28  0.295069D-02 -0.820798D-02  0.778764D-02  0.785248D-03 -0.912755D-02
     29 -0.206589D-02 -0.772096D-02  0.847700D-02 -0.519745D-03 -0.744996D-02
     30  0.154928D-02 -0.429778D-02  0.930310D-02  0.438550D-03 -0.100483D-01
     31  0.865236D-02 -0.189125D-02 -0.916709D-03 -0.852109D-02  0.859466D-02
     32  0.363578D-02 -0.140423D-02 -0.227342D-03 -0.982608D-02  0.102723D-01
     33  0.725095D-02  0.201895D-02  0.598754D-03 -0.886779D-02  0.767391D-02
     34 -0.657430D-02  0.769021D-02  0.251220D-02 -0.182041D-02 -0.544901D-03
     35  0.295089D-02 -0.443146D-02 -0.479375D-03  0.185091D-02  0.613926D-03
     36  0.266326D-02 -0.212041D-02 -0.133754D-02 -0.664813D-05 -0.413163D-03
               16            17            18            19            20 
     16  0.176990D+00
     17 -0.497124D-01  0.966902D-01
     18 -0.371683D-01 -0.669932D-02  0.700896D-01
     19 -0.797553D-01 -0.398860D-01  0.262930D-01  0.947476D-01
     20 -0.530773D-01  0.239886D-01 -0.291949D-01  0.114902D-01  0.570725D-01
     21  0.256219D-01 -0.217667D-01 -0.231167D-01 -0.543568D-02 -0.190236D-02
     22 -0.162620D-01 -0.767031D-02  0.590519D-02  0.213806D-01 -0.262979D-03
     23 -0.327963D-04  0.178914D-04 -0.178326D-02 -0.229261D-04  0.132349D-02
     24  0.315471D-03 -0.272066D-03  0.153283D-02  0.113413D-04 -0.201965D-02
     25  0.266237D-02  0.488183D-02 -0.343124D-02 -0.140026D-01  0.107398D-01
     26  0.674068D-02 -0.793080D-02 -0.678359D-02  0.103587D-01  0.619445D-04
     27 -0.977150D-02  0.922447D-02  0.535338D-02  0.426256D-03 -0.848772D-02
     28  0.673663D-02 -0.922128D-04 -0.220181D-02 -0.134427D-01  0.875683D-02
     29  0.108149D-01 -0.129048D-01 -0.555417D-02  0.109186D-01 -0.192100D-02
     30 -0.569724D-02  0.425042D-02  0.658281D-02  0.986148D-03 -0.104707D-01
     31 -0.207674D-04  0.308117D-02  0.193944D-03 -0.117366D-01  0.101996D-01
     32  0.405754D-02 -0.973146D-02 -0.315841D-02  0.126247D-01 -0.478224D-03
     33 -0.124546D-01  0.742381D-02  0.897857D-02  0.269224D-02 -0.902788D-02
     34 -0.786456D-02  0.270211D-01 -0.206479D-01 -0.914924D-02  0.105415D-01
     35 -0.149796D-01 -0.293417D-01 -0.398565D-02  0.270917D-01  0.113889D-01
     36  0.198281D-01  0.387127D-02  0.240321D-01 -0.184548D-01 -0.194876D-01
               21            22            23            24            25 
     21  0.274172D-01
     22 -0.204024D-02  0.287001D+00
     23  0.639305D-03 -0.145624D-04  0.385406D-01
     24  0.321652D-03 -0.352121D-03  0.188708D-02  0.170854D-01
     25  0.242144D-03 -0.487557D-02  0.810822D-05 -0.409083D-03  0.186509D-01
     26 -0.421872D-02  0.354996D-02 -0.394452D-04 -0.353469D-03  0.539647D-02
     27  0.388337D-02  0.963322D-03 -0.361542D-03  0.849253D-03  0.596924D-02
     28  0.102336D-02 -0.495315D-02  0.153021D-03 -0.330501D-03  0.392076D-02
     29 -0.343751D-02  0.347238D-02  0.105467D-03 -0.274887D-03 -0.933367D-02
     30  0.466458D-02  0.885742D-03 -0.216630D-03  0.927835D-03 -0.876090D-02
     31 -0.338425D-03 -0.446646D-02  0.292548D-03 -0.402981D-03  0.400212D-02
     32 -0.479929D-02  0.395907D-02  0.244995D-03 -0.347367D-03 -0.925231D-02
     33  0.330280D-02  0.137243D-02 -0.771018D-04  0.855355D-03 -0.867954D-02
     34  0.527931D-03 -0.173345D-02  0.577179D-03 -0.451592D-03 -0.258858D-02
     35  0.142273D-01  0.312300D-02  0.600918D-03 -0.348925D-03  0.117545D-02
     36 -0.140124D-01 -0.483652D-02 -0.766602D-03  0.244264D-03  0.257213D-02
               26            27            28            29            30 
     26  0.193436D-01
     27  0.614889D-02  0.186906D-01
     28 -0.941266D-02 -0.958399D-02  0.194646D-01
     29  0.453445D-02 -0.940434D-02  0.613120D-02  0.199993D-01
     30 -0.866023D-02  0.313737D-02  0.595987D-02  0.606053D-02  0.178581D-01
     31 -0.102205D-01 -0.899281D-02  0.447360D-02 -0.974903D-02 -0.852133D-02
     32  0.372660D-02 -0.881316D-02 -0.885982D-02  0.411909D-02 -0.842067D-02
     33 -0.946809D-02  0.372854D-02 -0.903115D-02 -0.981970D-02  0.337693D-02
     34  0.248687D-02  0.365178D-02 -0.453815D-02  0.537292D-03  0.170221D-02
     35 -0.162953D-02 -0.135266D-02  0.221035D-02 -0.594628D-03 -0.317757D-03
     36 -0.182883D-02 -0.198233D-02  0.338112D-02 -0.101984D-02 -0.117335D-02
               31            32            33            34            35 
     31  0.197742D-01
     32  0.555156D-02  0.185305D-01
     33  0.677926D-02  0.599071D-02  0.191873D-01
     34 -0.447226D-02  0.603184D-03  0.176810D-02  0.173019D-01
     35  0.199490D-02 -0.810085D-03 -0.533214D-03 -0.537011D-02  0.234039D-01
     36  0.321730D-02 -0.118366D-02 -0.133717D-02 -0.658253D-02 -0.118310D-01
               36 
     36  0.228294D-01
 Leave Link  716 at Thu Jan 24 17:04:13 2019, MaxMem=  134217728 cpu:       0.0
 (Enter /home/programs/G09_64/g09/l103.exe)

 GradGradGradGradGradGradGradGradGradGradGradGradGradGradGradGradGradGrad
 Berny optimization.
 Red2BG is reusing G-inverse.
 Internal  Forces:  Max     0.039332221 RMS     0.011335754
 Search for a saddle point.
 Step number   1 out of a maximum of   46
 All quantities printed in internal units (Hartrees-Bohrs-Radians)
 Swaping is turned off.
 Second derivative matrix not updated -- analytic derivatives used.
 ITU=  0
     Eigenvalues ---   -0.13156   0.00214   0.00522   0.01675   0.03858
     Eigenvalues ---    0.05182   0.05808   0.06642   0.06873   0.11462
     Eigenvalues ---    0.15247   0.18347   0.18675   0.21094   0.22263
     Eigenvalues ---    0.25457   0.29893   0.46620   0.47690   0.47928
     Eigenvalues ---    0.48439   0.49051   0.63375   0.77230
 Eigenvectors required to have negative eigenvalues:
                          R9        R7        D10       R5        D2
   1                    0.73784  -0.65444  -0.05391   0.04855  -0.04652
                          D7        D4        D11       D5        D8
   1                    0.04630   0.04603   0.04514  -0.04327  -0.04300
 RFO step:  Lambda0=6.841590478D-04 Lambda=-1.00534903D-02.
 Linear search not attempted -- option 19 set.
 Iteration  1 RMS(Cart)=  0.03409418 RMS(Int)=  0.00180495
 Iteration  2 RMS(Cart)=  0.00165960 RMS(Int)=  0.00040946
 Iteration  3 RMS(Cart)=  0.00000396 RMS(Int)=  0.00040945
 Iteration  4 RMS(Cart)=  0.00000000 RMS(Int)=  0.00040945
 Variable       Old X    -DE/DX   Delta X   Delta X   Delta X     New X
                                 (Linear)    (Quad)   (Total)
    R1        2.82670   0.03530   0.00000   0.07608   0.07608   2.90279
    R2        2.05225  -0.00053   0.00000  -0.00100  -0.00100   2.05125
    R3        2.05666  -0.00064   0.00000  -0.00267  -0.00267   2.05399
    R4        2.05750  -0.00181   0.00000  -0.00384  -0.00384   2.05367
    R5        2.60711   0.03400   0.00000   0.06865   0.06865   2.67576
    R6        2.04869   0.00808   0.00000   0.01719   0.01719   2.06588
    R7        2.45252   0.00476   0.00000  -0.05751  -0.05751   2.39501
    R8        1.81030   0.03933   0.00000   0.05612   0.05612   1.86643
    R9        1.84367  -0.01342   0.00000   0.01205   0.01205   1.85572
    A1        1.92727   0.00045   0.00000  -0.00698  -0.00699   1.92028
    A2        1.93594   0.00196   0.00000  -0.00259  -0.00261   1.93334
    A3        1.93350  -0.00077   0.00000  -0.00081  -0.00081   1.93269
    A4        1.89545  -0.00137   0.00000  -0.00054  -0.00057   1.89488
    A5        1.88011   0.00041   0.00000   0.00957   0.00957   1.88969
    A6        1.89001  -0.00076   0.00000   0.00186   0.00186   1.89187
    A7        2.02004   0.00334   0.00000  -0.00933  -0.01026   2.00978
    A8        2.00630  -0.00639   0.00000  -0.05461  -0.05518   1.95112
    A9        1.84002   0.00093   0.00000   0.02714   0.02744   1.86746
   A10        1.88736   0.00076   0.00000  -0.00221  -0.00383   1.88353
   A11        1.89742  -0.00009   0.00000   0.01876   0.01864   1.91606
   A12        1.79589   0.00153   0.00000   0.03067   0.03127   1.82715
   A13        1.90813  -0.01769   0.00000  -0.08255  -0.08255   1.82559
   A14        3.09863   0.00114   0.00000   0.02447   0.02447   3.12310
   A15        3.05561   0.00143   0.00000   0.05630   0.05630   3.11191
    D1        3.10625   0.00161   0.00000   0.03739   0.03699  -3.13994
    D2       -0.95573  -0.00023   0.00000  -0.02713  -0.02654  -0.98226
    D3        1.00894  -0.00095   0.00000  -0.00018  -0.00041   1.00853
    D4       -1.07471   0.00147   0.00000   0.03039   0.03001  -1.04470
    D5        1.14650  -0.00037   0.00000  -0.03413  -0.03352   1.11298
    D6        3.11116  -0.00109   0.00000  -0.00719  -0.00740   3.10377
    D7        1.02480   0.00131   0.00000   0.03047   0.03009   1.05489
    D8       -3.03718  -0.00054   0.00000  -0.03405  -0.03344  -3.07062
    D9       -1.07251  -0.00126   0.00000  -0.00710  -0.00732  -1.07983
   D10       -0.77060  -0.00327   0.00000  -0.08495  -0.08505  -0.85565
   D11       -3.04999   0.00212   0.00000   0.00113   0.00132  -3.04867
   D12        1.29526   0.00002   0.00000  -0.04240  -0.04250   1.25276
         Item               Value     Threshold  Converged?
 Maximum Force            0.039332     0.000450     NO 
 RMS     Force            0.011336     0.000300     NO 
 Maximum Displacement     0.073236     0.001800     NO 
 RMS     Displacement     0.034447     0.001200     NO 
 Predicted change in Energy=-4.901517D-03
 GradGradGradGradGradGradGradGradGradGradGradGradGradGradGradGradGradGrad

 Leave Link  103 at Thu Jan 24 17:04:13 2019, MaxMem=  134217728 cpu:       0.0
 (Enter /home/programs/G09_64/g09/l202.exe)
                          Input orientation:                          
 ---------------------------------------------------------------------
 Center     Atomic      Atomic             Coordinates (Angstroms)
 Number     Number       Type             X           Y           Z
 ---------------------------------------------------------------------
      1          6           0       -1.293754   -0.246811    0.103509
      2          6           0        0.034250    0.426537   -0.274081
      3          8           0        1.197190   -0.316504    0.042746
      4          1           0       -2.126509    0.390679   -0.176455
      5          1           0       -1.401142   -1.200517   -0.406707
      6          1           0       -1.344801   -0.423230    1.174631
      7          1           0        0.074382    0.676858   -1.337496
      8          1           0        0.064712    1.545241    0.320763
      9          1           0        1.069391   -0.589908    0.983177
     10          1           0        0.080777    2.400013    0.803917
 ---------------------------------------------------------------------
                    Distance matrix (angstroms):
                    1          2          3          4          5
     1  C    0.000000
     2  C    1.536088   0.000000
     3  O    2.492660   1.415952   0.000000
     4  H    1.085474   2.163261   3.405163   0.000000
     5  H    1.086926   2.173762   2.781154   1.763825   0.000000
     6  H    1.086753   2.173166   2.784650   1.760383   1.762946
     7  H    2.191223   1.093217   2.037777   2.504763   2.562825
     8  H    2.259221   1.267386   2.196792   2.526201   3.196424
     9  H    2.544796   1.919733   0.987670   3.538371   2.899681
    10  H    3.063591   2.249190   3.034012   3.141762   4.077439
                    6          7          8          9         10
     6  H    0.000000
     7  H    3.087889   0.000000
     8  H    2.567235   1.871899   0.000000
     9  H    2.427500   2.824935   2.450924   0.000000
    10  H    3.184400   2.748628   0.982004   3.154222   0.000000
 Symmetry turned off by external request.
 Stoichiometry    C2H7O(2)
 Framework group  C1[X(C2H7O)]
 Deg. of freedom    24
 Full point group                 C1      NOp   1
 Rotational constants (GHZ):     23.5276213      8.6202194      7.4316306
 Leave Link  202 at Thu Jan 24 17:04:13 2019, MaxMem=  134217728 cpu:       0.0
 (Enter /home/programs/G09_64/g09/l301.exe)
 Standard basis: STO-3G (5D, 7F)
 Ernie: Thresh=  0.10000D-02 Tol=  0.10000D-05 Strict=F.
 Integral buffers will be    131072 words long.
 Raffenetti 2 integral format.
 Two-electron integral symmetry is turned off.
    22 basis functions,    66 primitive gaussians,    22 cartesian basis functions
    14 alpha electrons       13 beta electrons
       nuclear repulsion energy        85.9439397829 Hartrees.
 IExCor=    0 DFT=F Ex=HF Corr=None ExCW=0 ScaHFX=  1.000000
 ScaDFX=  1.000000  1.000000  1.000000  1.000000 ScalE2=  1.000000  1.000000
 IRadAn=      0 IRanWt=     -1 IRanGd=            0 ICorTp=0
 NAtoms=   10 NActive=   10 NUniq=   10 SFac= 1.00D+00 NAtFMM=   50 NAOKFM=F Big=F
 Leave Link  301 at Thu Jan 24 17:04:13 2019, MaxMem=  134217728 cpu:       0.1
 (Enter /home/programs/G09_64/g09/l302.exe)
 NPDir=0 NMtPBC=     1 NCelOv=     1 NCel=       1 NClECP=     1 NCelD=      1
         NCelK=      1 NCelE2=     1 NClLst=     1 CellRange=     0.0.
 One-electron integrals computed using PRISM.
 NBasis=    22 RedAO= T  NBF=    22
 NBsUse=    22 1.00D-06 NBFU=    22
 Leave Link  302 at Thu Jan 24 17:04:14 2019, MaxMem=  134217728 cpu:       0.1
 (Enter /home/programs/G09_64/g09/l303.exe)
 DipDrv:  MaxL=1.
 Leave Link  303 at Thu Jan 24 17:04:14 2019, MaxMem=  134217728 cpu:       0.0
 (Enter /home/programs/G09_64/g09/l401.exe)
 Initial guess read from the read-write file.
 B after Tr=     0.000000    0.000000    0.000000
         Rot=    1.000000    0.000000    0.000000    0.000000 Ang=   0.00 deg.
 Guess basis will be translated and rotated to current coordinates.
 Initial guess <Sx>= 0.0000 <Sy>= 0.0000 <Sz>= 0.5000 <S**2>= 0.7880 S= 0.5188
 Generating alternative initial guess.
 Harris functional with IExCor=  205 diagonalized for initial guess.
 ExpMin= 1.69D-01 ExpMax= 1.31D+02 ExpMxC= 1.31D+02 IAcc=1 IRadAn=         1 AccDes= 0.00D+00
 HarFok:  IExCor=  205 AccDes= 0.00D+00 IRadAn=         1 IDoV= 1
 ScaDFX=  1.000000  1.000000  1.000000  1.000000
 FoFCou: FMM=F IPFlag=           0 FMFlag=      100000 FMFlg1=           0
         NFxFlg=           0 DoJE=T BraDBF=F KetDBF=T FulRan=T
         Omega=  0.000000  0.000000  1.000000  0.000000  0.000000 ICntrl=     500 IOpCl=  0
         NMat0=    1 NMatS0=    1 NMatT0=    0 NMatD0=    1 NMtDS0=    0 NMtDT0=    0
         I1Cent=           4 NGrid=           0.
 Symmetry not used in FoFCou.
 Harris En= -152.800621771973    
 Leave Link  401 at Thu Jan 24 17:04:14 2019, MaxMem=  134217728 cpu:       0.3
 (Enter /home/programs/G09_64/g09/l502.exe)
 UHF open shell SCF:
 Requested convergence on RMS density matrix=1.00D-08 within 128 cycles.
 Requested convergence on MAX density matrix=1.00D-06.
 Requested convergence on             energy=1.00D-06.
 No special actions if energy rises.
 Using DIIS extrapolation, IDIIS=  1040.
 Two-electron integral symmetry not used.
 Keep R1 and R2 ints in memory in canonical form, NReq=884165.
 IEnd=       19882 IEndB=       19882 NGot=   134217728 MDV=   134150703
 LenX=   134150703 LenY=   134149778
 Symmetry not used in FoFDir.
 MinBra= 0 MaxBra= 1 Meth= 1.
 IRaf=       0 NMat=   1 IRICut=       1 DoRegI=T DoRafI=F ISym2E= 0 JSym2E=0.

 Cycle   1  Pass 1  IDiag  1:
 E= -152.568342386476    
 DIIS: error= 5.06D-03 at cycle   1 NSaved=   1.
 NSaved= 1 IEnMin= 1 EnMin= -152.568342386476     IErMin= 1 ErrMin= 5.06D-03
 ErrMax= 5.06D-03 EMaxC= 1.00D-01 BMatC= 3.86D-03 BMatP= 3.86D-03
 IDIUse=3 WtCom= 9.49D-01 WtEn= 5.06D-02
 Coeff-Com:  0.100D+01
 Coeff-En:   0.100D+01
 Coeff:      0.100D+01
 Gap=     0.836 Goal=   None    Shift=    0.000
 Gap=     0.599 Goal=   None    Shift=    0.000
 GapD=    0.599 DampG=2.000 DampE=1.000 DampFc=2.0000 IDamp=-1.
 RMSDP=2.64D-03 MaxDP=1.37D-02              OVMax= 0.00D+00

 Cycle   2  Pass 1  IDiag  1:
 E= -152.570490616318     Delta-E=       -0.002148229843 Rises=F Damp=F
 DIIS: error= 1.59D-03 at cycle   2 NSaved=   2.
 NSaved= 2 IEnMin= 2 EnMin= -152.570490616318     IErMin= 2 ErrMin= 1.59D-03
 ErrMax= 1.59D-03 EMaxC= 1.00D-01 BMatC= 5.33D-04 BMatP= 3.86D-03
 IDIUse=3 WtCom= 9.84D-01 WtEn= 1.59D-02
 Coeff-Com: -0.358D+00 0.136D+01
 Coeff-En:   0.000D+00 0.100D+01
 Coeff:     -0.352D+00 0.135D+01
 Gap=     0.837 Goal=   None    Shift=    0.000
 Gap=     0.606 Goal=   None    Shift=    0.000
 RMSDP=1.49D-03 MaxDP=9.28D-03 DE=-2.15D-03 OVMax= 0.00D+00

 Cycle   3  Pass 1  IDiag  1:
 E= -152.570956224739     Delta-E=       -0.000465608421 Rises=F Damp=F
 DIIS: error= 8.94D-04 at cycle   3 NSaved=   3.
 NSaved= 3 IEnMin= 3 EnMin= -152.570956224739     IErMin= 3 ErrMin= 8.94D-04
 ErrMax= 8.94D-04 EMaxC= 1.00D-01 BMatC= 6.02D-05 BMatP= 5.33D-04
 IDIUse=3 WtCom= 9.91D-01 WtEn= 8.94D-03
 Coeff-Com: -0.243D-01-0.170D+00 0.119D+01
 Coeff-En:   0.000D+00 0.000D+00 0.100D+01
 Coeff:     -0.240D-01-0.169D+00 0.119D+01
 Gap=     0.838 Goal=   None    Shift=    0.000
 Gap=     0.605 Goal=   None    Shift=    0.000
 RMSDP=5.42D-04 MaxDP=3.79D-03 DE=-4.66D-04 OVMax= 0.00D+00

 Cycle   4  Pass 1  IDiag  1:
 E= -152.571020992972     Delta-E=       -0.000064768233 Rises=F Damp=F
 DIIS: error= 5.17D-04 at cycle   4 NSaved=   4.
 NSaved= 4 IEnMin= 4 EnMin= -152.571020992972     IErMin= 4 ErrMin= 5.17D-04
 ErrMax= 5.17D-04 EMaxC= 1.00D-01 BMatC= 1.27D-05 BMatP= 6.02D-05
 IDIUse=3 WtCom= 9.95D-01 WtEn= 5.17D-03
 Coeff-Com:  0.544D-01-0.140D+00-0.324D+00 0.141D+01
 Coeff-En:   0.000D+00 0.000D+00 0.000D+00 0.100D+01
 Coeff:      0.541D-01-0.140D+00-0.323D+00 0.141D+01
 Gap=     0.839 Goal=   None    Shift=    0.000
 Gap=     0.606 Goal=   None    Shift=    0.000
 RMSDP=3.23D-04 MaxDP=3.01D-03 DE=-6.48D-05 OVMax= 0.00D+00

 Cycle   5  Pass 1  IDiag  1:
 E= -152.571037490770     Delta-E=       -0.000016497798 Rises=F Damp=F
 DIIS: error= 1.82D-04 at cycle   5 NSaved=   5.
 NSaved= 5 IEnMin= 5 EnMin= -152.571037490770     IErMin= 5 ErrMin= 1.82D-04
 ErrMax= 1.82D-04 EMaxC= 1.00D-01 BMatC= 2.02D-06 BMatP= 1.27D-05
 IDIUse=3 WtCom= 9.98D-01 WtEn= 1.82D-03
 Coeff-Com: -0.179D-01 0.904D-01-0.955D-01-0.538D+00 0.156D+01
 Coeff-En:   0.000D+00 0.000D+00 0.000D+00 0.000D+00 0.100D+01
 Coeff:     -0.178D-01 0.903D-01-0.953D-01-0.537D+00 0.156D+01
 Gap=     0.839 Goal=   None    Shift=    0.000
 Gap=     0.606 Goal=   None    Shift=    0.000
 RMSDP=1.55D-04 MaxDP=1.44D-03 DE=-1.65D-05 OVMax= 0.00D+00

 Cycle   6  Pass 1  IDiag  1:
 E= -152.571040369551     Delta-E=       -0.000002878781 Rises=F Damp=F
 DIIS: error= 3.32D-05 at cycle   6 NSaved=   6.
 NSaved= 6 IEnMin= 6 EnMin= -152.571040369551     IErMin= 6 ErrMin= 3.32D-05
 ErrMax= 3.32D-05 EMaxC= 1.00D-01 BMatC= 1.68D-07 BMatP= 2.02D-06
 IDIUse=1 WtCom= 1.00D+00 WtEn= 0.00D+00
 Coeff-Com:  0.158D-02-0.229D-01 0.742D-01 0.760D-01-0.659D+00 0.153D+01
 Coeff:      0.158D-02-0.229D-01 0.742D-01 0.760D-01-0.659D+00 0.153D+01
 Gap=     0.839 Goal=   None    Shift=    0.000
 Gap=     0.606 Goal=   None    Shift=    0.000
 RMSDP=4.11D-05 MaxDP=3.15D-04 DE=-2.88D-06 OVMax= 0.00D+00

 Cycle   7  Pass 1  IDiag  1:
 E= -152.571040565882     Delta-E=       -0.000000196331 Rises=F Damp=F
 DIIS: error= 1.19D-05 at cycle   7 NSaved=   7.
 NSaved= 7 IEnMin= 7 EnMin= -152.571040565882     IErMin= 7 ErrMin= 1.19D-05
 ErrMax= 1.19D-05 EMaxC= 1.00D-01 BMatC= 1.63D-08 BMatP= 1.68D-07
 IDIUse=1 WtCom= 1.00D+00 WtEn= 0.00D+00
 Coeff-Com:  0.916D-03-0.812D-03-0.118D-01 0.214D-01 0.603D-01-0.405D+00
 Coeff-Com:  0.134D+01
 Coeff:      0.916D-03-0.812D-03-0.118D-01 0.214D-01 0.603D-01-0.405D+00
 Coeff:      0.134D+01
 Gap=     0.839 Goal=   None    Shift=    0.000
 Gap=     0.606 Goal=   None    Shift=    0.000
 RMSDP=8.00D-06 MaxDP=5.46D-05 DE=-1.96D-07 OVMax= 0.00D+00

 Cycle   8  Pass 1  IDiag  1:
 E= -152.571040580995     Delta-E=       -0.000000015113 Rises=F Damp=F
 DIIS: error= 5.91D-06 at cycle   8 NSaved=   8.
 NSaved= 8 IEnMin= 8 EnMin= -152.571040580995     IErMin= 8 ErrMin= 5.91D-06
 ErrMax= 5.91D-06 EMaxC= 1.00D-01 BMatC= 4.15D-09 BMatP= 1.63D-08
 IDIUse=1 WtCom= 1.00D+00 WtEn= 0.00D+00
 Coeff-Com: -0.820D-03 0.459D-02-0.630D-02-0.279D-01 0.794D-01-0.295D-02
 Coeff-Com: -0.980D+00 0.193D+01
[...]
     31  0.139292D-03 -0.594684D-02  0.276202D-03 -0.527188D-03  0.417591D-02
     32 -0.559751D-02  0.522067D-02  0.295836D-03 -0.215082D-03 -0.956886D-02
     33  0.350696D-02  0.139488D-02 -0.322073D-03  0.824300D-03 -0.851909D-02
     34 -0.114332D-02 -0.105292D-02  0.790931D-03  0.101912D-05 -0.281827D-02
     35  0.154039D-01  0.405788D-02  0.743643D-03 -0.254776D-03  0.914114D-03
     36 -0.139178D-01 -0.477980D-02 -0.113274D-02 -0.226549D-03  0.241662D-02
               26            27            28            29            30 
     26  0.196468D-01
     27  0.604968D-02  0.186004D-01
     28 -0.975335D-02 -0.952241D-02  0.196249D-01
     29  0.492673D-02 -0.948924D-02  0.575046D-02  0.203009D-01
     30 -0.867041D-02  0.306149D-02  0.598140D-02  0.588491D-02  0.176168D-01
     31 -0.104966D-01 -0.881294D-02  0.464331D-02 -0.100292D-01 -0.834555D-02
     32  0.418345D-02 -0.877977D-02 -0.923111D-02  0.452119D-02 -0.844203D-02
     33 -0.941369D-02  0.377096D-02 -0.900018D-02 -0.989478D-02  0.328986D-02
     34  0.273364D-02  0.395127D-02 -0.489382D-02  0.658103D-03  0.187573D-02
     35 -0.141653D-02 -0.150402D-02  0.200788D-02 -0.322762D-03 -0.410261D-03
     36 -0.169889D-02 -0.199976D-02  0.321153D-02 -0.903981D-03 -0.120486D-02
               31            32            33            34            35 
     31  0.196877D-01
     32  0.501517D-02  0.187675D-01
     33  0.669886D-02  0.580426D-02  0.189889D-01
     34 -0.481789D-02  0.734032D-03  0.195166D-02  0.184691D-01
     35  0.180739D-02 -0.523245D-03 -0.610744D-03 -0.683800D-02  0.262256D-01
     36  0.306194D-02 -0.105357D-02 -0.135445D-02 -0.576355D-02 -0.127204D-01
               36 
     36  0.229149D-01
 Leave Link  716 at Thu Jan 24 17:04:19 2019, MaxMem=  134217728 cpu:       0.1
 (Enter /home/programs/G09_64/g09/l103.exe)

 GradGradGradGradGradGradGradGradGradGradGradGradGradGradGradGradGradGrad
 Berny optimization.
 Red2BG is reusing G-inverse.
 Internal  Forces:  Max     0.000062547 RMS     0.000016122
 Search for a saddle point.
 Step number   1 out of a maximum of    2
 All quantities printed in internal units (Hartrees-Bohrs-Radians)
 Swaping is turned off.
 Second derivative matrix not updated -- analytic derivatives used.
 ITU=  0
     Eigenvalues ---   -0.11359   0.00191   0.00558   0.01613   0.03751
     Eigenvalues ---    0.05266   0.06003   0.06630   0.06887   0.11382
     Eigenvalues ---    0.15090   0.17744   0.18279   0.21420   0.23344
     Eigenvalues ---    0.25636   0.30250   0.40255   0.46713   0.47032
     Eigenvalues ---    0.48335   0.48647   0.54591   0.64692
 Eigenvectors required to have negative eigenvalues:
                          R9        R7        D10       R5        D2
   1                    0.76925  -0.62156  -0.04902   0.04557  -0.04184
                          A8        D11       D7        D5        D4
   1                   -0.03939   0.03897   0.03870  -0.03856   0.03801
 Angle between quadratic step and forces=  81.54 degrees.
 Linear search not attempted -- option 19 set.
 Iteration  1 RMS(Cart)=  0.00017538 RMS(Int)=  0.00000003
 Iteration  2 RMS(Cart)=  0.00000003 RMS(Int)=  0.00000000
 Variable       Old X    -DE/DX   Delta X   Delta X   Delta X     New X
                                 (Linear)    (Quad)   (Total)
    R1        2.91280  -0.00005   0.00000  -0.00011  -0.00011   2.91269
    R2        2.05131   0.00000   0.00000   0.00000   0.00000   2.05131
    R3        2.05392   0.00000   0.00000   0.00000   0.00000   2.05392
    R4        2.05351   0.00000   0.00000   0.00000   0.00000   2.05350
    R5        2.68295  -0.00002   0.00000  -0.00008  -0.00008   2.68287
    R6        2.06665   0.00001   0.00000   0.00001   0.00001   2.06666
    R7        2.39200  -0.00004   0.00000   0.00013   0.00013   2.39213
    R8        1.87237  -0.00006   0.00000  -0.00010  -0.00010   1.87227
    R9        1.86052   0.00002   0.00000  -0.00029  -0.00029   1.86023
    A1        1.91933   0.00000   0.00000   0.00002   0.00002   1.91935
    A2        1.93103   0.00000   0.00000  -0.00004  -0.00004   1.93099
    A3        1.93387   0.00000   0.00000   0.00002   0.00002   1.93388
    A4        1.89505   0.00000   0.00000  -0.00001  -0.00001   1.89505
    A5        1.89134   0.00000   0.00000   0.00001   0.00001   1.89135
    A6        1.89221   0.00000   0.00000   0.00000   0.00000   1.89220
    A7        2.00726  -0.00002   0.00000  -0.00004  -0.00004   2.00722
    A8        1.94547  -0.00001   0.00000  -0.00004  -0.00004   1.94542
    A9        1.87088   0.00001   0.00000   0.00006   0.00006   1.87093
   A10        1.88200   0.00001   0.00000   0.00002   0.00002   1.88202
   A11        1.91918   0.00000   0.00000   0.00003   0.00003   1.91922
   A12        1.83112   0.00000   0.00000  -0.00002  -0.00002   1.83110
   A13        1.82454   0.00002   0.00000   0.00010   0.00010   1.82463
   A14        3.13075   0.00001   0.00000   0.00013   0.00013   3.13088
   A15        3.14644   0.00001   0.00000   0.00035   0.00035   3.14679
    D1       -3.13940   0.00000   0.00000  -0.00020  -0.00020  -3.13960
    D2       -0.99041   0.00000   0.00000  -0.00024  -0.00024  -0.99066
    D3        1.00415   0.00000   0.00000  -0.00025  -0.00025   1.00389
    D4       -1.04603   0.00000   0.00000  -0.00021  -0.00021  -1.04625
    D5        1.10295   0.00000   0.00000  -0.00026  -0.00026   1.10269
    D6        3.09751   0.00000   0.00000  -0.00027  -0.00027   3.09724
    D7        1.05324   0.00000   0.00000  -0.00023  -0.00023   1.05300
    D8       -3.08096   0.00000   0.00000  -0.00028  -0.00028  -3.08124
    D9       -1.08640   0.00000   0.00000  -0.00029  -0.00029  -1.08669
   D10       -0.93722  -0.00001   0.00000  -0.00020  -0.00020  -0.93742
   D11       -3.11970   0.00001   0.00000  -0.00012  -0.00012  -3.11982
   D12        1.17627   0.00000   0.00000  -0.00013  -0.00013   1.17614
         Item               Value     Threshold  Converged?
 Maximum Force            0.000063     0.000450     YES
 RMS     Force            0.000016     0.000300     YES
 Maximum Displacement     0.000516     0.001800     YES
 RMS     Displacement     0.000175     0.001200     YES
 Predicted change in Energy=-6.835969D-09
 Optimization completed.
    -- Stationary point found.
                           ----------------------------
                           !   Optimized Parameters   !
                           ! (Angstroms and Degrees)  !
 --------------------------                            --------------------------
 ! Name  Definition              Value          Derivative Info.                !
 --------------------------------------------------------------------------------
 ! R1    R(1,2)                  1.5414         -DE/DX =    0.0                 !
 ! R2    R(1,4)                  1.0855         -DE/DX =    0.0                 !
 ! R3    R(1,5)                  1.0869         -DE/DX =    0.0                 !
 ! R4    R(1,6)                  1.0867         -DE/DX =    0.0                 !
 ! R5    R(2,3)                  1.4198         -DE/DX =    0.0                 !
 ! R6    R(2,7)                  1.0936         -DE/DX =    0.0                 !
 ! R7    R(2,8)                  1.2658         -DE/DX =    0.0                 !
 ! R8    R(3,9)                  0.9908         -DE/DX =   -0.0001              !
 ! R9    R(8,10)                 0.9845         -DE/DX =    0.0                 !
 ! A1    A(2,1,4)              109.9696         -DE/DX =    0.0                 !
 ! A2    A(2,1,5)              110.6399         -DE/DX =    0.0                 !
 ! A3    A(2,1,6)              110.8025         -DE/DX =    0.0                 !
 ! A4    A(4,1,5)              108.5786         -DE/DX =    0.0                 !
 ! A5    A(4,1,6)              108.3657         -DE/DX =    0.0                 !
 ! A6    A(5,1,6)              108.4154         -DE/DX =    0.0                 !
 ! A7    A(1,2,3)              115.0076         -DE/DX =    0.0                 !
 ! A8    A(1,2,7)              111.4671         -DE/DX =    0.0                 !
 ! A9    A(1,2,8)              107.1933         -DE/DX =    0.0                 !
 ! A10   A(3,2,7)              107.8309         -DE/DX =    0.0                 !
 ! A11   A(3,2,8)              109.9612         -DE/DX =    0.0                 !
 ! A12   A(7,2,8)              104.9153         -DE/DX =    0.0                 !
 ! A13   A(2,3,9)              104.5382         -DE/DX =    0.0                 !
 ! A14   L(2,8,10,1,-1)        179.3788         -DE/DX =    0.0                 !
 ! A15   L(2,8,10,1,-2)        180.2775         -DE/DX =    0.0                 !
 ! D1    D(4,1,2,3)           -179.8744         -DE/DX =    0.0                 !
 ! D2    D(4,1,2,7)            -56.7466         -DE/DX =    0.0                 !
 ! D3    D(4,1,2,8)             57.5333         -DE/DX =    0.0                 !
 ! D4    D(5,1,2,3)            -59.9333         -DE/DX =    0.0                 !
 ! D5    D(5,1,2,7)             63.1945         -DE/DX =    0.0                 !
 ! D6    D(5,1,2,8)            177.4745         -DE/DX =    0.0                 !
 ! D7    D(6,1,2,3)             60.346          -DE/DX =    0.0                 !
 ! D8    D(6,1,2,7)           -176.5262         -DE/DX =    0.0                 !
 ! D9    D(6,1,2,8)            -62.2463         -DE/DX =    0.0                 !
 ! D10   D(1,2,3,9)            -53.6989         -DE/DX =    0.0                 !
 ! D11   D(7,2,3,9)           -178.7457         -DE/DX =    0.0                 !
 ! D12   D(8,2,3,9)             67.3953         -DE/DX =    0.0                 !
 --------------------------------------------------------------------------------
 GradGradGradGradGradGradGradGradGradGradGradGradGradGradGradGradGradGrad

 Leave Link  103 at Thu Jan 24 17:04:19 2019, MaxMem=  134217728 cpu:       0.0
 (Enter /home/programs/G09_64/g09/l9999.exe)
 1\1\GINC-AF2CIQUS\Freq\UHF\STO-3G\C2H7O1(2)\RAMOS\24-Jan-2019\0\\#P Ge
 om=AllCheck Guess=TCheck SCRF=Check GenChk UHF/STO-3G Freq\\---\\0,2\C
 ,-1.3026835553,-0.2498460157,0.1007511323\C,0.0330138508,0.4233884678,
 -0.2714586224\O,1.1934827251,-0.3337311234,0.0380377912\H,-2.131796527
 8,0.39549217,-0.1720810135\H,-1.4136542285,-1.1960704816,-0.4223837459
 \H,-1.3542767971,-0.4402761163,1.1693589165\H,0.071441878,0.6755261886
 ,-1.3349258171\H,0.0707925496,1.5370582054,0.3289877328\H,1.0989592853
 ,-0.5518124009,0.9999244165\H,0.0892174424,2.402628848,0.7977923593\\V
 ersion=AM64L-G09RevB.01\HF=-152.5711401\S2=0.784769\S2-1=0.\S2A=0.7501
 94\RMSD=7.258e-10\RMSF=2.360e-05\ZeroPoint=0.0921144\Thermal=0.0967518
 \Dipole=-0.4477688,-0.0506248,0.3166839\DipoleDeriv=-0.0831069,0.09132
 22,-0.0128593,-0.0170982,-0.1625538,0.0002147,-0.0336129,-0.0766254,-0
 .0776144,0.4928936,-0.1564644,0.0506883,-0.0152962,0.9115497,0.1486156
 ,0.0788804,0.1434424,0.2986994,-0.482577,0.1316691,-0.0833375,0.012415
 ,-0.6401909,-0.0855303,-0.1514501,-0.0216583,-0.0318444,-0.01981,0.027
 5219,-0.0170714,0.0021402,0.0205865,0.0050321,0.0034314,0.0099281,0.05
 01897,0.0006219,-0.0671795,-0.0094835,-0.0195972,-0.0186086,-0.0290664
 ,0.02141,0.0046189,0.0374122,0.006744,-0.0167182,-0.0035287,-0.0204325
 ,0.0281226,0.0180844,0.0040296,0.0148411,-0.0391812,-0.0415172,-0.0160
 734,0.009686,-0.0015913,-0.0519712,-0.0334752,0.0082409,0.0227509,-0.0
 317768,-0.0393014,-0.0324679,-0.0319883,0.0255482,-0.5486769,-0.182341
 5,0.0053144,-0.2993018,-0.0983384,0.1965593,0.0268484,0.0927249,0.0429
 912,0.2575194,0.0693274,0.0677083,0.0774754,-0.125067,-0.0305063,0.011
 5418,0.0051696,-0.0090791,0.2042232,0.0891392,-0.0039519,0.1245289,0.0
 17521\Polar=13.3563043,-0.9655726,20.9677625,1.2043923,1.9223871,15.93
 51565\PolarDeriv=-0.9329433,-2.1489746,0.7965118,0.8231177,0.0726385,0
 .3991621,-2.1199955,0.9501145,2.3357493,0.2543123,1.5006559,0.9286398,
 1.150434,0.390825,1.8995706,0.6852987,1.3725494,-2.1122087,0.3238567,1
 .5851932,1.5295903,-1.0192549,0.544976,-0.7536694,2.0199318,0.4743388,
 -5.7715533,0.1991698,-2.5497568,-1.095026,-1.0211061,0.0142988,-2.5545
 853,-0.2541695,-1.6463773,2.5866706,5.4068629,-1.315359,-2.3956051,-0.
 3401263,-0.7309891,0.821979,-0.8401102,1.4606029,0.5985075,-0.1405548,
 -0.4481863,0.2178347,-0.5304529,0.7829048,-1.08753,0.7905227,0.5849029
 ,-4.0044904,-4.7849873,1.569943,0.0404883,-1.0132589,0.0010027,-0.2110
 716,0.8129265,-1.9388553,1.9501474,0.0477365,-0.8051178,-0.0460872,-0.
 350839,-0.0295215,-0.3691049,-1.9105349,0.8382828,-0.7429976,-0.921449
 7,-1.7969925,-0.5418477,-1.3037433,-0.1733794,-0.1058389,-0.04689,-1.2
 60322,-5.6090672,-0.2592758,-1.6904745,-0.4337245,-0.4453955,-0.299437
 9,-0.8495769,-0.6437773,-2.3699085,-1.7662147,-0.5783724,-0.1800171,-0
 .240726,2.0279232,0.175187,-0.1730158,0.3239217,-0.550547,-1.4633868,0
 .1707371,1.7903327,-0.2621436,0.1988654,0.1779781,0.1218492,-0.8254578
 ,-1.040994,4.829555,0.3953989,0.1526462,0.3511716,-2.2576231,-0.060364
 1,0.1760311,-0.3615804,0.3044009,1.3254102,-0.1428833,-1.7854063,0.674
 3909,-0.1370828,-0.0763087,0.0157437,0.432272,0.8417965,-6.3189086,0.1
 08637,0.1610841,0.236915,0.1835439,0.0527856,0.0820188,0.7106731,-0.61
 36697,5.3380544,0.1230638,1.7399235,0.7650887,0.6491242,-0.3311998,2.6
 69561,0.1869083,1.3533227,0.3716007,0.789233,-0.8414542,0.2151367,1.74
 57347,0.1150839,-0.2249431,-0.182369,0.7723574,-2.3015974,-0.2244629,1
 .8866272,-0.343029,0.7077976,-0.7614763,1.1640397,1.4795371,-2.1555751
 ,5.1268557,0.1937642,2.8139308,0.0083651,1.1536869,0.0030589,-0.010652
 3,-0.3165079,0.4015794,3.5977357,-0.0278429,0.3614025,-0.4059439,-0.22
 1345,0.1319375,-1.009967,0.0594007,2.2220005,2.030138\HyperPolar=-10.2
 270354,12.7699607,-13.0678047,69.1503708,0.5467714,-0.3491472,18.31959
 07,0.686789,3.9956628,8.3774612\PG=C01 [X(C2H7O1)]\NImag=1\\0.74335537
 ,-0.06154739,0.82248885,0.03171337,0.00717646,0.84199314,-0.24659186,-
 0.08465405,0.03712769,0.70223190,-0.07426664,-0.14499312,0.03112112,-0
 .04932255,0.42551639,0.04347758,0.03846659,-0.12993717,-0.00327168,-0.
 19332989,0.76278941,-0.04492065,0.02957996,-0.01110488,-0.30299621,0.1
 2683303,-0.00847718,0.41074779,-0.00667621,0.01317629,-0.00181897,0.17
 173841,-0.14923003,0.04012586,-0.19739205,0.21583367,0.00442731,-0.005
 06170,0.00732821,-0.07776968,0.07268018,-0.13722407,-0.01202047,-0.191
 50739,0.72688454,-0.29853686,0.17989034,-0.07649237,-0.02295721,0.0242
 2589,-0.01207337,-0.00531099,-0.00324218,0.00200445,0.30901672,0.17681
 944,-0.21555990,0.05801823,-0.01801317,0.01543025,-0.00743061,-0.00534
 952,-0.00095425,0.00127667,-0.18699034,0.21717123,-0.07486754,0.057492
 08,-0.10352100,0.00900697,-0.00827677,0.00321839,0.00307045,0.00103179
 ,0.00006687,0.07923214,-0.06310143,0.09535291,-0.07788181,-0.03263925,
 -0.02201720,-0.00425879,-0.03537629,-0.01840074,0.00348722,0.00219661,
 0.00030115,0.00778838,0.03006165,0.02075741,0.07356402,-0.02775594,-0.
 36660261,-0.16273565,-0.00131915,-0.01293222,-0.00687354,0.00136001,0.
 00145483,0.00021117,-0.00880418,-0.01484104,-0.01390958,0.03545932,0.3
 7835615,-0.01798916,-0.15913968,-0.16946033,0.00131771,0.01261371,0.00
 710316,-0.00031617,-0.00036549,-0.00013766,0.00137159,0.01505930,0.007
 73001,0.01822607,0.17191644,0.16589569,-0.07723213,-0.00049443,0.01706
 826,0.00113927,-0.00734305,0.04215633,0.00313872,-0.00030309,-0.000390
 85,0.00594843,0.00231440,-0.03662384,-0.00007618,0.00171087,-0.0040570
 9,0.07290611,-0.00069190,-0.09064318,0.06377048,0.00107088,-0.00405771
 ,0.02104331,0.00124766,-0.00000439,-0.00094836,-0.00545288,-0.00180252
 ,0.02715200,0.00178952,0.01295202,-0.04163371,0.00502042,0.08241995,0.
 01288846,0.06250748,-0.44844999,-0.00134278,0.00076535,-0.00308016,-0.
 00077772,-0.00056411,0.00067831,0.00525040,-0.00369318,-0.00349888,0.0
 0078422,0.01062369,-0.01258999,-0.01732795,-0.06938215,0.46524290,0.00
 080486,-0.00658094,0.03846596,-0.07605600,-0.00214888,0.02206286,0.004
 93749,0.00837962,-0.04182525,0.00213754,0.00062935,-0.00056978,0.00161
 942,0.00093119,-0.00073420,-0.00658335,-0.00378196,0.00014410,0.079431
 50,-0.00144238,-0.00137143,0.02058463,-0.00160714,-0.07404704,0.073789
 50,-0.00095020,-0.00411203,0.02835965,0.00036397,0.00035223,-0.0005971
 1,0.00177565,0.00123212,-0.00017797,-0.00305343,-0.00053386,0.00021477
 ,-0.00167088,0.08222007,-0.00320149,-0.00242046,-0.00141750,0.01756728
 ,0.09198093,-0.43139438,-0.00286665,0.00257271,-0.00496578,0.00000795,
 -0.00021777,0.00047042,-0.00037290,-0.00001618,0.00076210,0.00005670,0
 .00009888,0.00094543,-0.01209805,-0.09480236,0.44352868,-0.00191181,-0
 .02372257,-0.01287286,-0.05320739,0.00007225,-0.00015259,-0.00738853,0
 .02677763,0.00909635,0.00134236,0.00031409,-0.00020219,-0.00411143,-0.
 00161841,0.00210556,0.00100032,0.00070817,-0.00020083,0.00138017,0.000
 74264,0.00121207,0.08235814,-0.00577945,-0.02570729,-0.01794613,-0.012
 95974,0.11046689,0.07586159,0.02820342,-0.04034761,-0.00762277,0.00076
 749,0.00047463,0.00003360,-0.00385928,0.00064304,0.00267586,0.00197420
 ,0.00118374,-0.00075511,-0.00283674,-0.00938939,-0.00017081,-0.0063759
 7,-0.14563627,0.00041135,-0.00042173,-0.00099987,-0.00502949,0.0875312
 9,-0.02506071,0.00799218,-0.00595295,0.00516284,-0.00002277,-0.0002175
 0,0.00000667,0.00046523,0.00083888,0.00121919,0.00012679,0.00042393,0.
 00035852,-0.00350195,-0.03371839,-0.01194239,-0.00173423,-0.11841835,0
 .01475692,0.00248469,-0.00038079,-0.00192240,-0.00611229,0.02078324,-0
 .06409663,-0.06214729,-0.00068798,0.11633703,0.00043269,0.00007136,0.0
 0012633,-0.00029571,-0.00017720,0.00007647,-0.00026658,-0.00001342,0.0
 0058214,-0.00749738,0.00563774,-0.00025922,0.00111661,-0.00200057,0.00
 001002,0.07233341,-0.00135994,0.00171524,-0.00244225,-0.00397390,-0.01
 391861,0.04057377,0.02406827,-0.04688043,0.10140430,-0.00053111,-0.000
 39974,0.00007824,-0.00028714,-0.00019151,-0.00024506,0.00054282,0.0005
 4331,-0.00002318,0.00591654,-0.00160537,0.00024597,-0.00053492,0.00270
 419,0.00201966,-0.02363544,0.05866588,0.00211275,-0.00233965,0.0021944
 3,0.02246335,-0.00895873,-0.01157281,0.02807588,0.15136721,-0.59820826
 ,0.00081924,0.00020614,0.00014623,-0.00012201,0.00006256,-0.00008259,-
 0.00072222,-0.00032207,0.00024289,-0.00250563,0.00201921,0.00174501,0.
 00102185,-0.00166960,0.00072059,-0.05109841,-0.14107511,0.60448173,0.0
 0043019,0.00054912,0.00003443,0.00880859,-0.00345699,-0.00122458,0.000
 45245,-0.00079077,-0.00016004,0.00013894,0.00014274,0.00007005,0.00016
 488,0.00021347,-0.00000077,0.00002538,0.00010350,-0.00000005,-0.000174
 27,0.00020402,-0.00004569,-0.02057843,0.00286665,0.00128288,-0.0000481
 4,-0.00020520,-0.00004479,0.01078041,0.00270042,0.00749715,0.00427209,
 -0.00095959,-0.15223480,-0.08222658,-0.00760058,0.01106396,0.00120824,
 -0.00022701,0.00012911,0.00009718,0.00087920,-0.00007077,-0.00070340,-
 0.00036873,-0.00005735,0.00030644,0.00116270,0.00725470,0.00272909,0.0
 0363708,0.10560807,0.06791516,0.00040304,-0.00063296,0.00071005,0.0003
 7347,0.02144289,0.00102737,0.00374061,0.00227008,-0.00006936,-0.086127
 20,-0.03484166,-0.00357543,0.00511135,0.00041500,-0.00009727,0.0001001
 4,0.00002839,0.00037875,-0.00011778,-0.00043957,-0.00028613,-0.0002023
 0,0.00015097,0.00056194,0.00432806,0.00226839,0.00172688,0.06801173,0.
 01577825,0.00024467,-0.00053634,0.00033278,0.00008857,0.00569172,0.014
 03738\\-0.00003664,-0.00001008,0.00001232,0.00000632,-0.00002079,-0.00
 003461,0.00004631,0.00000495,-0.00006454,-0.00000069,-0.00000035,0.000
 00097,-0.00000250,-0.00000275,0.00000098,-0.00000191,0.00000100,0.0000
 0128,0.00000645,0.00000469,0.00000839,0.00000103,0.00004836,0.00001700
 ,-0.00001766,-0.00000916,0.00006062,-0.00000071,-0.00001588,-0.0000024
 0\\\@


 BE LIKE A POSTAGE STAMP.  STICK TO ONE THING UNTIL
 YOU GET THERE -- JOSH BILLINGS
 Job cpu time:  0 days  0 hours  0 minutes  2.2 seconds.
 File lengths (MBytes):  RWF=      5 Int=      0 D2E=      0 Chk=      1 Scr=      1
 Normal termination of Gaussian 09 at Thu Jan 24 17:04:19 2019.
