----                                                                    
Freq      UHF                                                         STO-3G              
Number of atoms                            I                8
Info1-9                                    I   N=           9
          14          14        1001           0           0         100
           6           1           2
Charge                                     I                0
Multiplicity                               I                2
Number of electrons                        I               25
Number of alpha electrons                  I               13
Number of beta electrons                   I               12
Number of basis functions                  I               20
Number of independent functions            I               20
Number of point charges in /Mol/           I                0
Number of translation vectors              I                0
Atomic numbers                             I   N=           8
           6           6           8           1           1           1
           1           1
Nuclear charges                            R   N=           8
  6.00000000E+00  6.00000000E+00  8.00000000E+00  1.00000000E+00  1.00000000E+00
  1.00000000E+00  1.00000000E+00  1.00000000E+00
Current cartesian coordinates              R   N=          24
  3.30171913E-02  9.24122990E-01  5.38045109E-01 -2.42142592E+00 -5.34868595E-01
  1.44645165E-01  2.30534368E+00 -3.97388020E-01  7.93471949E-01 -3.93837846E+00
  7.64571103E-01 -3.25408277E-01 -2.23238887E+00 -1.88472863E+00 -1.39325071E+00
 -2.96942111E+00 -1.57114660E+00  1.83696994E+00 -3.10606058E-02  2.57094024E+00
  1.77132010E+00  2.16829909E+00 -1.84229949E+00 -3.86801267E-01
Number of symbols in /Mol/                 I                0
Force Field                                I                0
Atom Types                                 C   N=           8
                                                            
                                    
Int Atom Types                             I   N=           8
           0           0           0           0           0           0
           0           0
MM charges                                 R   N=           8
  0.00000000E+00  0.00000000E+00  0.00000000E+00  0.00000000E+00  0.00000000E+00
  0.00000000E+00  0.00000000E+00  0.00000000E+00
Integer atomic weights                     I   N=           8
          12          12          16           1           1           1
           1           1
Real atomic weights                        R   N=           8
  1.20000000E+01  1.20000000E+01  1.59949146E+01  1.00782504E+00  1.00782504E+00
  1.00782504E+00  1.00782504E+00  1.00782504E+00
Atom fragment info                         I   N=           8
           0           0           0           0           0           0
           0           0
Atom residue num                           I   N=           8
           0           0           0           0           0           0
           0           0
Nuclear spins                              I   N=           8
           0           0           0           1           1           1
           1           1
Nuclear ZEff                               R   N=           8
 -3.60000000E+00 -3.60000000E+00 -5.60000000E+00 -1.00000000E+00 -1.00000000E+00
 -1.00000000E+00 -1.00000000E+00 -1.00000000E+00
Nuclear QMom                               R   N=           8
  0.00000000E+00  0.00000000E+00  0.00000000E+00  0.00000000E+00  0.00000000E+00
  0.00000000E+00  0.00000000E+00  0.00000000E+00
Nuclear GFac                               R   N=           8
  0.00000000E+00  0.00000000E+00  0.00000000E+00  2.79284600E+00  2.79284600E+00
  2.79284600E+00  2.79284600E+00  2.79284600E+00
MicOpt                                     I   N=           8
          -1          -1          -1          -1          -1          -1
          -1          -1
Number of residues                         I                0
Number of secondary structures             I                0
Number of contracted shells                I               11
Number of primitive shells                 I               33
Pure/Cartesian d shells                    I                0
Pure/Cartesian f shells                    I                0
Highest angular momentum                   I                1
Largest degree of contraction              I                3
Shell types                                I   N=          11
           0          -1           0          -1           0          -1
           0           0           0           0           0
Number of primitives per shell             I   N=          11
           3           3           3           3           3           3
           3           3           3           3           3
Shell to atom map                          I   N=          11
           1           1           2           2           3           3
           4           5           6           7           8
Primitive exponents                        R   N=          33
  7.16168373E+01  1.30450963E+01  3.53051216E+00  2.94124936E+00  6.83483096E-01
  2.22289916E-01  7.16168373E+01  1.30450963E+01  3.53051216E+00  2.94124936E+00
  6.83483096E-01  2.22289916E-01  1.30709321E+02  2.38088661E+01  6.44360831E+00
  5.03315132E+00  1.16959612E+00  3.80388960E-01  3.42525091E+00  6.23913730E-01
  1.68855404E-01  3.42525091E+00  6.23913730E-01  1.68855404E-01  3.42525091E+00
  6.23913730E-01  1.68855404E-01  3.42525091E+00  6.23913730E-01  1.68855404E-01
  3.42525091E+00  6.23913730E-01  1.68855404E-01
Contraction coefficients                   R   N=          33
  1.54328967E-01  5.35328142E-01  4.44634542E-01 -9.99672292E-02  3.99512826E-01
  7.00115469E-01  1.54328967E-01  5.35328142E-01  4.44634542E-01 -9.99672292E-02
  3.99512826E-01  7.00115469E-01  1.54328967E-01  5.35328142E-01  4.44634542E-01
 -9.99672292E-02  3.99512826E-01  7.00115469E-01  1.54328967E-01  5.35328142E-01
  4.44634542E-01  1.54328967E-01  5.35328142E-01  4.44634542E-01  1.54328967E-01
  5.35328142E-01  4.44634542E-01  1.54328967E-01  5.35328142E-01  4.44634542E-01
  1.54328967E-01  5.35328142E-01  4.44634542E-01
P(S=P) Contraction coefficients            R   N=          33
  0.00000000E+00  0.00000000E+00  0.00000000E+00  1.55916275E-01  6.07683719E-01
  3.91957393E-01  0.00000000E+00  0.00000000E+00  0.00000000E+00  1.55916275E-01
  6.07683719E-01  3.91957393E-01  0.00000000E+00  0.00000000E+00  0.00000000E+00
  1.55916275E-01  6.07683719E-01  3.91957393E-01  0.00000000E+00  0.00000000E+00
  0.00000000E+00  0.00000000E+00  0.00000000E+00  0.00000000E+00  0.00000000E+00
  0.00000000E+00  0.00000000E+00  0.00000000E+00  0.00000000E+00  0.00000000E+00
  0.00000000E+00  0.00000000E+00  0.00000000E+00
Coordinates of each shell                  R   N=          33
  3.30171913E-02  9.24122990E-01  5.38045109E-01  3.30171913E-02  9.24122990E-01
  5.38045109E-01 -2.42142592E+00 -5.34868595E-01  1.44645165E-01 -2.42142592E+00
 -5.34868595E-01  1.44645165E-01  2.30534368E+00 -3.97388020E-01  7.93471949E-01
  2.30534368E+00 -3.97388020E-01  7.93471949E-01 -3.93837846E+00  7.64571103E-01
 -3.25408277E-01 -2.23238887E+00 -1.88472863E+00 -1.39325071E+00 -2.96942111E+00
 -1.57114660E+00  1.83696994E+00 -3.10606058E-02  2.57094024E+00  1.77132010E+00
  2.16829909E+00 -1.84229949E+00 -3.86801267E-01
Constraint Structure                       R   N=          24
  3.30171913E-02  9.24122990E-01  5.38045109E-01 -2.42142592E+00 -5.34868595E-01
  1.44645165E-01  2.30534368E+00 -3.97388020E-01  7.93471949E-01 -3.93837846E+00
  7.64571103E-01 -3.25408277E-01 -2.23238887E+00 -1.88472863E+00 -1.39325071E+00
 -2.96942111E+00 -1.57114660E+00  1.83696994E+00 -3.10606058E-02  2.57094024E+00
  1.77132010E+00  2.16829909E+00 -1.84229949E+00 -3.86801267E-01
Num ILSW                                   I              100
ILSW                                       I   N=         100
           1           0           0           0           2           0
           0           0           3           0           0          -1
           0           0           0           0           0           0
           0           0           1           0           1           0
           1           1           0           0           0           0
           0           0      100000           0          -1           0
           0           0           0           0           0           0
           0           0           0           1           0           0
           0           0           1           0           0           0
           0           0           4          40           0           0
           0           0           0           0           0           0
           0           0           0           0           0           0
           0           0           0           0           0           0
           0           0           0           0           0           0
           0           0           0           0           0           0
           0           0           0           0           0           0
           0           0           0           0
Num RLSW                                   I               40
RLSW                                       R   N=          40
  1.00000000E+00  1.00000000E+00  1.00000000E+00  1.00000000E+00  1.00000000E+00
  0.00000000E+00  0.00000000E+00  1.00000000E+00  0.00000000E+00  0.00000000E+00
  0.00000000E+00  0.00000000E+00  1.00000000E+00  0.00000000E+00  0.00000000E+00
  0.00000000E+00  0.00000000E+00  1.00000000E+00  0.00000000E+00  0.00000000E+00
  0.00000000E+00  0.00000000E+00  1.00000000E+00  0.00000000E+00  0.00000000E+00
  0.00000000E+00  0.00000000E+00  1.00000000E+00  0.00000000E+00  0.00000000E+00
  0.00000000E+00  0.00000000E+00  1.00000000E+00  0.00000000E+00  0.00000000E+00
  0.00000000E+00  0.00000000E+00  0.00000000E+00  1.00000000E+00  1.00000000E+00
MxBond                                     I                4
NBond                                      I   N=           8
           3           4           2           1           1           1
           1           1
IBond                                      I   N=          32
           2           3           7           0           1           4
           5           6           1           8           0           0
           2           0           0           0           2           0
           0           0           2           0           0           0
           1           0           0           0           3           0
           0           0
RBond                                      R   N=          32
  1.00000000E+00  1.00000000E+00  1.00000000E+00  0.00000000E+00  1.00000000E+00
  1.00000000E+00  1.00000000E+00  1.00000000E+00  1.00000000E+00  1.00000000E+00
  0.00000000E+00  0.00000000E+00  1.00000000E+00  0.00000000E+00  0.00000000E+00
  0.00000000E+00  1.00000000E+00  0.00000000E+00  0.00000000E+00  0.00000000E+00
  1.00000000E+00  0.00000000E+00  0.00000000E+00  0.00000000E+00  1.00000000E+00
  0.00000000E+00  0.00000000E+00  0.00000000E+00  1.00000000E+00  0.00000000E+00
  0.00000000E+00  0.00000000E+00
Virial Ratio                               R      2.007710902796140E+00
SCF Energy                                 R     -1.515048401829425E+02
Total Energy                               R     -1.515048401829425E+02
S**2                                       R      7.595477646916766E-01
S**2 after annihilation                    R      7.500685900923237E-01
RMS Force                                  R      6.184680704124305E-07
RMS Density                                R      8.490008062001079E-10
External E-field                           R   N=          35
  0.00000000E+00  0.00000000E+00  0.00000000E+00  0.00000000E+00  0.00000000E+00
  0.00000000E+00  0.00000000E+00  0.00000000E+00  0.00000000E+00  0.00000000E+00
  0.00000000E+00  0.00000000E+00  0.00000000E+00  0.00000000E+00  0.00000000E+00
  0.00000000E+00  0.00000000E+00  0.00000000E+00  0.00000000E+00  0.00000000E+00
  0.00000000E+00  0.00000000E+00  0.00000000E+00  0.00000000E+00  0.00000000E+00
  0.00000000E+00  0.00000000E+00  0.00000000E+00  0.00000000E+00  0.00000000E+00
  0.00000000E+00  0.00000000E+00  0.00000000E+00  0.00000000E+00  0.00000000E+00
IOpCl                                      I                1
IROHF                                      I                0
Alpha Orbital Energies                     R   N=          20
 -2.02806821E+01 -1.10498671E+01 -1.10465654E+01 -1.30155112E+00 -9.67057931E-01
 -7.90775120E-01 -5.96073554E-01 -5.73536273E-01 -5.61755102E-01 -4.87293465E-01
 -4.83726360E-01 -4.07354079E-01 -2.66312423E-01  5.71080702E-01  6.25056694E-01
  6.39789928E-01  7.09870736E-01  7.45080703E-01  7.80852018E-01  7.93776822E-01
Beta Orbital Energies                      R   N=          20
 -2.02782954E+01 -1.10492450E+01 -1.10209829E+01 -1.28411201E+00 -9.46194285E-01
 -7.39125861E-01 -5.70691882E-01 -5.64938086E-01 -5.34623085E-01 -4.80670120E-01
 -4.22406281E-01 -3.86422069E-01  3.26600655E-01  5.88445094E-01  6.35751232E-01
  6.74477962E-01  7.26229568E-01  7.49343607E-01  8.11573149E-01  8.16060475E-01
Alpha MO coefficients                      R   N=         400
  5.01549141E-04 -4.37370520E-03 -3.73126452E-03  2.14124058E-03 -5.45408403E-04
 -2.18804069E-05  1.57627796E-04  3.75225075E-04 -2.56278111E-04  4.51680549E-05
  9.94163572E-01  2.60620479E-02 -3.17152571E-03 -8.51845258E-04 -2.39620758E-03
  2.65150421E-05  1.65985646E-04 -6.93196298E-06  2.70786061E-04 -5.70985497E-03
  9.90901837E-01  3.46601802E-02 -6.86735797E-04 -7.49931798E-04  2.19946312E-03
 -4.86673775E-02 -7.64847559E-03 -3.80097940E-03 -2.14743501E-03 -7.32068690E-04
  4.36197662E-04 -4.72012784E-03  2.45719001E-03 -1.68853183E-03 -1.58120883E-04
  2.82877028E-04  2.82158930E-04  2.31497773E-04 -7.34824370E-03 -1.29032831E-03
  4.96934600E-02 -4.02812798E-03  3.58153837E-03  2.17298097E-03  6.89566430E-04
  9.90760304E-01  3.74972107E-02 -4.71583336E-04 -2.39272891E-04 -1.49963448E-04
 -8.07092004E-07  3.39368386E-05 -2.05778367E-05 -1.72098143E-04 -7.78323915E-05
 -7.00352795E-03 -6.99817996E-03 -6.96437409E-03 -2.90223475E-04 -2.39863720E-04
 -8.78690691E-02  2.24786102E-01  8.18297449E-02 -5.71962077E-02  4.99434227E-03
 -1.80755819E-02  4.21835682E-02  1.93310539E-02  6.45923694E-03  2.69539172E-03
 -2.23749194E-01  8.01715361E-01 -9.43319052E-02 -2.03250795E-02 -6.67955948E-02
  4.85611163E-03  6.47155470E-03  6.11443785E-03  2.47709383E-02  1.38549963E-01
 -1.25926924E-01  3.74229417E-01 -1.25574689E-01 -2.00938374E-02 -1.30532474E-02
 -1.90800573E-01  5.28104953E-01  3.50509814E-02  2.34824511E-02  6.40766588E-03
  5.95384272E-02 -2.41975302E-01 -6.24019739E-02  5.08079010E-02  2.10302146E-02
  1.41263350E-01  1.40186337E-01  1.40038531E-01  8.62420707E-02 -7.59943183E-02
 -1.67169472E-01  5.58073198E-01  6.06207244E-02  1.26756216E-01  5.50845909E-02
  1.01800413E-01 -3.09336890E-01  1.28970123E-01  1.04868479E-01  3.47969158E-02
  4.18831919E-02 -1.83085481E-01 -1.36881607E-01  2.14254532E-01  6.28313820E-02
 -1.24672967E-01 -1.57662713E-01 -1.41676205E-01  2.36127881E-01 -1.89035030E-01
  5.26631126E-02 -1.96082160E-01  1.74761239E-01  7.61295363E-02  3.38711729E-01
 -1.68073784E-02  5.60534540E-02 -2.73689600E-01 -1.01665726E-01  2.12206046E-01
 -5.66930987E-02  2.76278065E-01  8.20831119E-02  2.31197866E-01  3.28263180E-01
  9.36461970E-02 -8.33306262E-02  2.75044509E-01  9.47749433E-02 -2.68510322E-01
  4.45985648E-03 -3.28352048E-02 -2.09160545E-01  3.06674579E-01  2.68276359E-02
  1.85344646E-03 -7.97991139E-03 -1.99696333E-01  3.48098289E-01  3.85272728E-02
 -1.67832877E-02  8.12323054E-02  2.95741382E-01 -2.10318853E-01 -7.54391064E-02
  3.04175400E-01 -2.38985445E-01 -8.08185022E-02  1.99532539E-01  2.00739307E-01
 -9.38097071E-03  1.07817376E-02 -2.51401466E-01 -1.70564500E-01  2.25423277E-01
  6.80363162E-03 -2.21711807E-02  2.04444972E-01 -2.61017897E-02  3.96898280E-01
  2.43152490E-02 -1.19686963E-01 -1.07693349E-01 -3.66355592E-01  8.18109390E-02
 -2.28755238E-01 -2.35916130E-01  2.43623597E-01  2.47570921E-02  1.82666593E-01
 -6.38063243E-03  1.12232855E-02  2.81460090E-02  4.02824052E-01 -1.35671205E-02
  1.05210348E-02 -4.07765028E-02  1.43928514E-02 -3.86886402E-01  2.28792755E-02
  1.45852093E-02 -7.45299344E-02  2.86043094E-01  2.95029770E-03 -3.22479961E-01
 -2.80555744E-01  2.27690243E-01  1.98099170E-01  3.02822287E-01  1.89052241E-01
  1.62198056E-02 -8.56561290E-02 -1.91229428E-01  5.00573999E-02  3.03515864E-01
 -1.37759296E-03  4.95945015E-03  1.54590060E-01 -7.36973752E-02 -3.01637598E-01
 -3.18770834E-02  1.64108627E-01  9.36421937E-02 -2.96879349E-01  5.37828940E-01
 -8.22846101E-02  3.00015612E-01 -2.61756857E-01  1.70264895E-01 -2.79407835E-02
 -1.29982593E-03  1.61631339E-02 -2.76454096E-01 -3.21282437E-02 -2.32388482E-01
 -2.72695350E-02  1.10125504E-01  3.11740418E-01  8.45062050E-02  1.08619951E-01
 -6.60966147E-02  3.52422173E-01  6.02453297E-01  3.24741103E-01  9.23633584E-02
 -1.79581132E-01 -7.65619768E-02  2.67123536E-02 -1.82280089E-01 -2.33842703E-01
  4.28863753E-02 -2.32977526E-01 -1.16639434E-01 -3.29450816E-01  7.08193049E-01
 -1.74535453E-02  7.70135081E-02  1.15639430E-01  9.92643671E-02 -6.67233154E-02
  7.28052237E-03 -4.25919156E-02  1.27777580E-01  3.42085136E-01 -5.24066558E-01
  5.75127482E-02  8.61660679E-02 -2.23109563E-01  9.62510030E-02  5.56524768E-02
 -8.53293328E-02  4.56989262E-01  4.45983436E-01 -2.07659953E-01  1.01830433E-01
  2.52665593E-02 -1.37582298E-01  1.06017854E-01 -1.93763213E-01  9.36331889E-02
  1.23261858E-01 -7.86444011E-01  4.88662447E-01  2.37319446E-01  4.39545403E-01
  3.65359402E-01 -8.69130541E-02 -1.08214987E-01 -2.03126000E-01  8.32415659E-01
  5.52944364E-02 -2.83061321E-01 -7.78016005E-02  5.94273232E-01  1.46175575E-01
 -2.11463757E-02  1.15517996E-01  2.97101744E-02  6.54675462E-01  2.60964761E-01
  3.75912946E-03 -3.95081025E-02 -3.61058532E-01  4.46087906E-01  2.07262756E-01
 -4.41845920E-01  5.61083834E-01  6.37973531E-02 -4.10084515E-01  5.51421529E-01
 -1.77609956E-01  1.07320965E+00 -4.13973846E-01 -2.68867758E-02  2.47454820E-01
  6.72291497E-02 -3.76764138E-01 -8.19212195E-01 -1.52895859E-01  1.70244448E-01
  5.65043425E-03 -2.54992069E-02  1.81391047E-01 -1.44483189E-01 -1.00446292E-01
 -2.72144257E-01  3.40274846E-01 -2.42045510E-01 -7.25287005E-01 -1.48871167E-01
  2.95445525E-02 -1.70514742E-01  2.56157024E-01  2.36420865E-01 -8.44181932E-02
 -5.63053910E-02  3.41404459E-01  2.65076175E-01 -2.61593531E-01  9.91328705E-01
 -1.85733179E-02  1.24099700E-01 -3.26801725E-02 -1.87363919E-01 -8.83281716E-02
  4.02695354E-01  3.77308100E-01 -9.71446304E-01 -3.88337427E-02 -2.48038827E-01
  2.28881558E-02 -1.26918412E-01  4.96217856E-02  1.13529542E-01  1.89305235E-02
 -2.23916544E-01  1.43764406E+00 -3.81991703E-01 -2.67727393E-01 -1.68418934E-01
  8.88036814E-03 -6.27171253E-02 -6.38496431E-02  1.18953912E-01  8.04610523E-02
 -7.26844875E-01 -8.33889062E-01 -6.63880254E-01  2.17139339E-03  2.09042712E-01
 -5.14660807E-02  3.03444604E-01  7.93651188E-01  3.89683084E-01  4.48506424E-01
 -7.05509050E-02  4.40111776E-01  3.48500071E-01  4.22207412E-01 -2.43362408E-01
  1.76784683E-02 -1.03037299E-01  2.78956392E-01 -5.28793003E-01 -2.01884301E-01
 -2.24770735E-01 -9.96985083E-02  2.48699581E-01 -6.23322695E-01 -3.74609904E-01
  2.29400083E-02 -1.98428086E-01  4.18691389E-01 -6.73302546E-01 -3.10566228E-01
 -2.20984638E-02  1.41830194E-01 -4.61295007E-01  6.68171965E-01  2.78835949E-01
  3.32273313E-02 -2.16954376E-01  3.04593456E-01 -1.71257716E-01  5.30985097E-02
 -6.50484416E-01  5.19566536E-01 -7.39458104E-02  6.84942169E-01 -7.61296480E-02
Beta MO coefficients                       R   N=         400
  4.94526438E-04 -4.28116050E-03 -3.67962437E-03  2.12863355E-03 -5.68492007E-04
 -2.14307667E-05  1.52833760E-04  3.68713027E-04 -2.55675450E-04  4.95122631E-05
  9.94203709E-01  2.58800819E-02 -3.16930285E-03 -8.45129036E-04 -2.38282298E-03
  2.59797814E-05  1.65191636E-04 -9.90675668E-06  2.61368718E-04 -5.67436469E-03
 -4.19758223E-03 -5.87996716E-03  3.63057861E-03  2.24823864E-03  4.99457530E-04
  9.91879520E-01  3.81257670E-02 -2.56839733E-04 -1.17392610E-04 -1.13643221E-04
 -2.40117792E-05  2.88428561E-04 -1.56478622E-04 -8.71328415E-05 -5.71844918E-05
 -7.05692790E-03 -7.05036865E-03 -7.01993684E-03  1.03264293E-04 -1.73931697E-04
  9.92985324E-01  3.07834611E-02 -4.58601978E-04 -7.69235993E-04  2.38454466E-03
  5.14282518E-03 -4.99878398E-03 -3.41330957E-03 -1.88605558E-03 -7.57417677E-04
  3.45735753E-04 -4.10190022E-03  2.13178160E-03 -1.47364057E-03 -1.95596696E-04
 -1.07350420E-04 -1.07390791E-04 -9.47037505E-05 -6.57060668E-03 -1.19753843E-03
 -7.32490583E-02  1.71103619E-01  8.05682630E-02 -5.92223687E-02  1.27785828E-02
 -1.60136289E-02  4.08141046E-02  1.86545226E-02  5.67924080E-03  1.85459128E-03
 -2.28015168E-01  8.22127187E-01 -1.01848472E-01 -2.28869665E-02 -6.50192740E-02
  4.11621854E-03  5.94218294E-03  5.84275351E-03  2.43923939E-02  1.47901936E-01
 -8.73812014E-02  2.29803735E-01 -1.15770655E-01 -4.26438141E-02  3.05881326E-03
 -2.11340005E-01  6.04486686E-01  2.03113353E-02  1.24724828E-02  2.61098973E-03
  4.18287699E-02 -1.67160798E-01 -4.99709046E-02  2.81864855E-02  1.58223942E-02
  1.62038427E-01  1.62534984E-01  1.56620750E-01  6.69992545E-02 -5.00718574E-02
 -1.63412558E-01  5.03250258E-01  4.81004867E-02  7.99627492E-02  1.30525771E-01
  6.13914873E-02 -1.87108934E-01  1.36154336E-01  1.14438297E-01  5.57860467E-02
  3.24645032E-02 -1.35807622E-01 -1.81737592E-01  2.57324867E-01  1.11030203E-01
 -9.09340006E-02 -1.37056262E-01 -8.85449539E-02  3.02487551E-01 -2.36545872E-01
 -5.58114711E-02  1.83923393E-01 -1.28985872E-01 -2.36308731E-01 -1.21244731E-01
  1.15264732E-02 -3.20958180E-02  4.27944067E-01 -8.08531597E-02 -9.80021037E-02
  6.39816751E-02 -3.09984782E-01 -2.71892783E-01 -2.06643608E-01 -1.88888715E-01
 -2.99664701E-01  1.32502126E-01 -1.34739333E-01 -1.12237180E-01  1.79084098E-01
 -2.68014325E-02  6.10014585E-02 -2.99316704E-01  1.45049349E-01  1.25389914E-02
  8.31546944E-03 -2.59023850E-02  1.10661125E-02  3.70944487E-01  7.10966302E-02
  2.00477099E-02 -1.01385107E-01  1.76148863E-01 -3.62414243E-01 -1.75663382E-01
  1.69704992E-01 -2.57244656E-01 -1.13886800E-01  1.82626551E-01  3.23784013E-01
  7.26014347E-03 -2.52758502E-02 -5.60856571E-02 -3.83528514E-02  7.56076660E-02
 -2.19964891E-03  9.71657165E-03  5.11408152E-02 -1.76992830E-01  5.38337730E-01
  7.43061306E-03 -3.73403400E-02 -3.71816377E-02 -1.42287501E-01  4.74271261E-02
 -2.35560021E-01 -2.48847843E-01  4.48758774E-01 -1.15363297E-03  6.24504175E-02
  2.21423505E-03 -3.72837931E-02 -7.19908756E-02  3.52584140E-01  1.37857728E-01
  8.68555621E-03 -3.53611149E-02  7.26334263E-02 -3.53757080E-01 -1.30361885E-01
 -6.52892139E-03  3.13094042E-02  3.58355134E-01 -1.15728195E-01 -1.74392203E-02
 -2.57572967E-01  3.25835370E-01  3.20925844E-02  3.93871191E-01  1.36784911E-01
  1.78565905E-02 -6.05369653E-02 -2.94285638E-01 -1.15037925E-01  4.21085698E-02
 -2.26960218E-02  9.17426506E-02  2.88647468E-01  1.19695005E-01 -2.17475159E-02
 -6.87897282E-02  3.59723023E-01  2.97751195E-01 -1.01950988E-01  6.49506057E-01
 -9.73416038E-02 -2.93336424E-03 -1.09231825E-01 -1.43469105E-01 -2.24718398E-01
 -1.64018172E-02  6.06242928E-02 -9.63119670E-02 -1.62116285E-02 -2.20411066E-01
 -2.29509922E-02  1.00195433E-01  2.24274637E-01  8.07257149E-02  1.09673635E-01
 -2.45405918E-02  1.31147973E-01  5.39664214E-01  5.12672914E-01 -4.47161338E-01
 -1.18961116E-01 -8.44532686E-02  4.40006309E-02 -1.42938852E-01 -1.07105303E-01
  7.27689727E-02 -3.42890996E-01 -9.36208662E-02 -3.68470064E-01  8.10168630E-01
 -1.83758353E-02  8.59196421E-02  9.63985983E-02  3.48957141E-02  1.01845680E-01
  2.12631701E-03 -2.17077034E-02  4.08328572E-02  2.15485523E-01 -2.89097873E-01
  1.08139675E-01  1.31287855E-01 -2.80846683E-01  9.13221933E-02  6.74752094E-02
 -6.22149413E-02  3.16202134E-01  4.05680311E-01 -9.13033906E-02  6.00277574E-02
  2.19702398E-02 -1.22547167E-01  1.74275836E-01 -1.12921389E-01  9.14330646E-02
  1.19857850E-01 -7.68215705E-01  3.49976634E-01  3.56194943E-01  5.02155328E-01
  3.37179941E-01 -5.45792459E-02 -5.15062178E-02 -1.85592256E-01  9.46721675E-01
  1.81903770E-02 -5.96524712E-02 -2.15955074E-01  5.33198864E-01  1.60384167E-01
 -1.65497554E-03  4.95616792E-03 -2.46811324E-01  6.77612611E-01  2.69170305E-01
 -7.47077390E-03  3.71106568E-02 -3.15765167E-01  3.41362357E-01  1.18174372E-01
 -6.04654275E-01  6.83850736E-01  5.48830219E-02 -4.78181526E-01  3.77089653E-01
 -1.99200269E-01  1.15118096E+00 -2.90959604E-01 -1.83677923E-01  1.69150296E-01
  5.12095598E-02 -2.78044938E-01 -7.63235888E-01 -3.58720335E-01  2.48790337E-01
  2.13918783E-02 -1.22568178E-01  3.08519724E-01 -2.20678788E-01 -8.03789215E-02
 -1.12618435E-01  1.93059484E-01 -4.40524757E-01 -5.76771175E-01 -1.73376008E-01
  4.14626180E-02 -2.47872171E-01  2.36160282E-01  2.68690437E-01 -2.10978010E-01
 -4.07213244E-04 -1.47547095E-02  4.07666294E-01 -1.65912387E-01  9.86799559E-01
 -2.18791000E-02  1.44602372E-01 -7.87508545E-02 -1.52580409E-01 -4.28999809E-02
  5.82290942E-01  5.58469937E-01 -7.40682818E-01  3.10271265E-02 -2.19739144E-01
  4.95920654E-02 -2.80920099E-01  1.10885328E-01  1.82923501E-01 -5.45796379E-02
 -2.31437354E-01  1.48447879E+00 -2.65702001E-01 -2.83178771E-01  7.00810857E-02
  2.12187813E-03 -1.95356612E-02 -1.09833630E-01  1.13310319E-01  8.33079073E-02
 -6.12773159E-01 -7.11818285E-01 -8.54099184E-01  6.56320068E-02  1.83951658E-01
 -5.00553005E-02  2.77740047E-01  9.16347211E-01  2.57059665E-01  4.05827537E-01
 -7.77218692E-02  4.92743609E-01  2.62524466E-01  4.89497940E-01 -1.19295634E-01
  3.10383091E-02 -1.91333893E-01  3.40900688E-01 -5.43414374E-01 -1.62073414E-01
 -2.97848953E-01  2.32639985E-03  1.42727144E-01 -4.82293421E-01 -3.37698628E-01
  3.57666448E-02 -2.74200783E-01  3.09157529E-01 -7.95133425E-01 -4.26335429E-01
 -5.22773953E-03  3.46807726E-02 -4.58538490E-01  5.35129122E-01  2.89663378E-01
  3.23729352E-02 -2.13925405E-01  2.66313346E-01 -8.61588584E-02  1.02974547E-01
 -5.21091552E-01  4.76716905E-01 -9.35668169E-02  8.30904476E-01 -1.35999335E-02
Total SCF Density                          R   N=         210
  2.07112737E+00 -2.46577408E-01  9.88169668E-01  7.55058481E-03 -3.54645238E-05
  5.23722882E-01 -2.08959384E-02  7.94036649E-02  4.99028763E-02  6.50926643E-01
  3.72204966E-02 -2.08558116E-01 -6.09671607E-02 -1.29144911E-01  9.24492849E-01
  1.75232399E-02 -4.09058240E-02  7.14729883E-02  5.05925391E-02  9.40096677E-03
  2.06642798E+00 -4.54738593E-02  5.15176392E-02 -2.04270938E-01 -1.55891140E-01
 -1.97720203E-02 -2.08781552E-01  8.26331444E-01 -9.26656975E-02  2.64529984E-01
 -3.48741968E-01 -2.40781158E-01 -4.61446736E-02 -1.81055067E-03  2.50081386E-02
  6.53568991E-01 -5.00948829E-02  1.41566434E-01 -2.15498283E-01 -1.30861184E-01
 -3.73474345E-02 -8.11103984E-04  1.39143519E-02 -8.32341115E-03  6.50630717E-01
 -1.32458070E-02  4.16968272E-02 -6.42289339E-02 -5.11639222E-02  1.75950806E-02
 -1.92970326E-03  1.12691476E-02  2.89852144E-03 -9.59749076E-04  6.50147772E-01
  6.27406604E-03  1.49877047E-03 -3.24400740E-02  1.93774138E-02 -8.10204790E-03
 -4.19140304E-04 -2.83869956E-03  6.42267900E-03 -9.05002730E-03  8.94893366E-04
  2.10662511E+00 -5.37148637E-04 -1.13774344E-01  5.08809895E-02 -4.17308231E-02
  2.08793850E-02 -3.02907553E-03  3.47845556E-02 -1.03316373E-02  4.95827091E-02
 -2.52173989E-03 -4.48850625E-01  1.96958718E+00  1.03587656E-01 -3.29938191E-01
 -4.12038887E-01  3.31261795E-01 -7.05144074E-02 -3.45335663E-02  1.47147031E-01
  1.84994116E-01  5.13433179E-02  3.05509605E-02 -7.95562061E-02  4.31081672E-01
  1.26777183E+00 -5.25944173E-02  1.59664049E-01  2.47966620E-01 -1.08855698E-01
 -1.23508677E-02 -1.41852397E-02  7.16832387E-02  4.04047693E-02  2.57685707E-02
  1.11499932E-02 -2.46997944E-02  1.48304597E-01  3.34681374E-01  1.13988034E+00
  1.64541895E-02 -2.32230168E-02 -1.02298421E-01  2.17334237E-02  6.69695530E-02
 -3.00060547E-03  4.27550313E-03  1.59877010E-02 -1.21394204E-02 -4.64675285E-02
 -6.28001320E-02  3.49540400E-01 -1.10843556E-01 -3.99217044E-01  1.51314101E+00
  2.45789125E-02 -9.71091240E-02  7.29929017E-02  2.51635426E-03  3.68542850E-02
 -9.39131184E-02  2.22742203E-01 -4.31167584E-01  3.88124462E-01 -1.34933805E-01
 -6.33901992E-03  2.66104590E-02 -1.16070546E-01  5.64228874E-04 -1.43327135E-02
  6.08882429E-01  1.94624968E-02 -8.95365275E-02  6.26742867E-02  5.74794085E-02
  7.64647315E-02 -9.30259011E-02  2.19295780E-01  7.25231418E-02 -3.88027372E-01
 -4.48570539E-01  5.68122705E-03 -2.37496041E-02  3.26293580E-02 -3.41712167E-03
  2.51898653E-02 -1.16315068E-01  6.23707320E-01  1.36417988E-02 -3.93621945E-02
  8.22453875E-02  7.99614035E-02 -8.20850910E-02 -9.30008745E-02  2.20921257E-01
 -1.41724741E-01 -2.91022662E-01  4.94397335E-01  1.54935912E-03 -6.90076706E-03
  1.25361407E-02 -4.64041603E-03 -7.49601400E-03 -1.22724225E-01 -1.29210125E-01
  6.19414413E-01 -1.10543282E-01  2.55394325E-01 -1.44799513E-02  4.26266962E-01
  3.48673828E-01  2.66665418E-02 -1.05017965E-01 -8.96612090E-02 -1.04836929E-01
 -4.76247519E-02  2.79614881E-02 -1.41632380E-01  5.23090839E-02 -1.18452157E-01
 -5.42901012E-02 -3.60623148E-02  1.04721432E-01 -1.64939177E-02  6.15178268E-01
  2.46077800E-02 -1.19143633E-01 -1.07132882E-01  9.60431263E-02  2.05277824E-02
  1.30165692E-02 -5.55145888E-02 -4.76746390E-02 -2.98312552E-02  1.54983353E-03
 -2.68474769E-02 -3.85891729E-02 -8.63195688E-02 -5.43163499E-01 -4.62663525E-01
  2.05122275E-03  1.30478135E-02  2.72850060E-03  1.40943311E-01  6.02659046E-01
Spin SCF Density                           R   N=         210
  1.06853510E-02 -4.95726411E-02  2.21638623E-01 -6.17167088E-03  2.90373192E-02