-                                                                       
Freq      UHF                                                         STO-3G              
Number of atoms                            I                8
Info1-9                                    I   N=           9
          14          14        1001           0           0         100
           6           1           2
Charge                                     I                0
Multiplicity                               I                2
Number of electrons                        I               25
Number of alpha electrons                  I               13
Number of beta electrons                   I               12
Number of basis functions                  I               20
Number of independent functions            I               20
Number of point charges in /Mol/           I                0
Number of translation vectors              I                0
Atomic numbers                             I   N=           8
           6           6           8           1           1           1
           1           1
Nuclear charges                            R   N=           8
  6.00000000E+00  6.00000000E+00  8.00000000E+00  1.00000000E+00  1.00000000E+00
  1.00000000E+00  1.00000000E+00  1.00000000E+00
Current cartesian coordinates              R   N=          24
  7.49576638E-02  1.01107858E+00  1.22253973E-01 -2.25688853E+00 -6.70473294E-01
 -3.93042778E-02  2.41218187E+00 -3.62499367E-01 -1.62141318E-01 -2.83433106E+00
 -1.39890944E+00 -1.86137552E+00 -2.83290920E+00 -1.73696468E+00  1.60984098E+00
  3.98397197E-02  2.40076553E+00 -1.40761926E+00  5.31648545E-02  2.05443804E+00
  1.91431951E+00  2.37971969E+00 -1.60070937E+00  1.24453990E+00
Number of symbols in /Mol/                 I                0
Force Field                                I                0
Atom Types                                 C   N=           8
                                                            
                                    
Int Atom Types                             I   N=           8
           0           0           0           0           0           0
           0           0
MM charges                                 R   N=           8
  0.00000000E+00  0.00000000E+00  0.00000000E+00  0.00000000E+00  0.00000000E+00
  0.00000000E+00  0.00000000E+00  0.00000000E+00
Integer atomic weights                     I   N=           8
          12          12          16           1           1           1
           1           1
Real atomic weights                        R   N=           8
  1.20000000E+01  1.20000000E+01  1.59949146E+01  1.00782504E+00  1.00782504E+00
  1.00782504E+00  1.00782504E+00  1.00782504E+00
Atom fragment info                         I   N=           8
           0           0           0           0           0           0
           0           0
Atom residue num                           I   N=           8
           0           0           0           0           0           0
           0           0
Nuclear spins                              I   N=           8
           0           0           0           1           1           1
           1           1
Nuclear ZEff                               R   N=           8
 -3.60000000E+00 -3.60000000E+00 -5.60000000E+00 -1.00000000E+00 -1.00000000E+00
 -1.00000000E+00 -1.00000000E+00 -1.00000000E+00
Nuclear QMom                               R   N=           8
  0.00000000E+00  0.00000000E+00  0.00000000E+00  0.00000000E+00  0.00000000E+00
  0.00000000E+00  0.00000000E+00  0.00000000E+00
Nuclear GFac                               R   N=           8
  0.00000000E+00  0.00000000E+00  0.00000000E+00  2.79284600E+00  2.79284600E+00
  2.79284600E+00  2.79284600E+00  2.79284600E+00
MicOpt                                     I   N=           8
          -1          -1          -1          -1          -1          -1
          -1          -1
Number of residues                         I                0
Number of secondary structures             I                0
Number of contracted shells                I               11
Number of primitive shells                 I               33
Pure/Cartesian d shells                    I                0
Pure/Cartesian f shells                    I                0
Highest angular momentum                   I                1
Largest degree of contraction              I                3
Shell types                                I   N=          11
           0          -1           0          -1           0          -1
           0           0           0           0           0
Number of primitives per shell             I   N=          11
           3           3           3           3           3           3
           3           3           3           3           3
Shell to atom map                          I   N=          11
           1           1           2           2           3           3
           4           5           6           7           8
Primitive exponents                        R   N=          33
  7.16168373E+01  1.30450963E+01  3.53051216E+00  2.94124936E+00  6.83483096E-01
  2.22289916E-01  7.16168373E+01  1.30450963E+01  3.53051216E+00  2.94124936E+00
  6.83483096E-01  2.22289916E-01  1.30709321E+02  2.38088661E+01  6.44360831E+00
  5.03315132E+00  1.16959612E+00  3.80388960E-01  3.42525091E+00  6.23913730E-01
  1.68855404E-01  3.42525091E+00  6.23913730E-01  1.68855404E-01  3.42525091E+00
  6.23913730E-01  1.68855404E-01  3.42525091E+00  6.23913730E-01  1.68855404E-01
  3.42525091E+00  6.23913730E-01  1.68855404E-01
Contraction coefficients                   R   N=          33
  1.54328967E-01  5.35328142E-01  4.44634542E-01 -9.99672292E-02  3.99512826E-01
  7.00115469E-01  1.54328967E-01  5.35328142E-01  4.44634542E-01 -9.99672292E-02
  3.99512826E-01  7.00115469E-01  1.54328967E-01  5.35328142E-01  4.44634542E-01
 -9.99672292E-02  3.99512826E-01  7.00115469E-01  1.54328967E-01  5.35328142E-01
  4.44634542E-01  1.54328967E-01  5.35328142E-01  4.44634542E-01  1.54328967E-01
  5.35328142E-01  4.44634542E-01  1.54328967E-01  5.35328142E-01  4.44634542E-01
  1.54328967E-01  5.35328142E-01  4.44634542E-01
P(S=P) Contraction coefficients            R   N=          33
  0.00000000E+00  0.00000000E+00  0.00000000E+00  1.55916275E-01  6.07683719E-01
  3.91957393E-01  0.00000000E+00  0.00000000E+00  0.00000000E+00  1.55916275E-01
  6.07683719E-01  3.91957393E-01  0.00000000E+00  0.00000000E+00  0.00000000E+00
  1.55916275E-01  6.07683719E-01  3.91957393E-01  0.00000000E+00  0.00000000E+00
  0.00000000E+00  0.00000000E+00  0.00000000E+00  0.00000000E+00  0.00000000E+00
  0.00000000E+00  0.00000000E+00  0.00000000E+00  0.00000000E+00  0.00000000E+00
  0.00000000E+00  0.00000000E+00  0.00000000E+00
Coordinates of each shell                  R   N=          33
  7.49576638E-02  1.01107858E+00  1.22253973E-01  7.49576638E-02  1.01107858E+00
  1.22253973E-01 -2.25688853E+00 -6.70473294E-01 -3.93042778E-02 -2.25688853E+00
 -6.70473294E-01 -3.93042778E-02  2.41218187E+00 -3.62499367E-01 -1.62141318E-01
  2.41218187E+00 -3.62499367E-01 -1.62141318E-01 -2.83433106E+00 -1.39890944E+00
 -1.86137552E+00 -2.83290920E+00 -1.73696468E+00  1.60984098E+00  3.98397197E-02
  2.40076553E+00 -1.40761926E+00  5.31648545E-02  2.05443804E+00  1.91431951E+00
  2.37971969E+00 -1.60070937E+00  1.24453990E+00
Constraint Structure                       R   N=          24
  7.49576638E-02  1.01107858E+00  1.22253973E-01 -2.25688853E+00 -6.70473294E-01
 -3.93042778E-02  2.41218187E+00 -3.62499367E-01 -1.62141318E-01 -2.83433106E+00
 -1.39890944E+00 -1.86137552E+00 -2.83290920E+00 -1.73696468E+00  1.60984098E+00
  3.98397197E-02  2.40076553E+00 -1.40761926E+00  5.31648545E-02  2.05443804E+00
  1.91431951E+00  2.37971969E+00 -1.60070937E+00  1.24453990E+00
Num ILSW                                   I              100
ILSW                                       I   N=         100
           1           0           0           0           2           0
           0           0           3           0           0          -1
           0           0           0           0           0           0
           0           0           1           0           1           0
           1           1           0           0           0           0
           0           0      100000           0          -1           0
           0           0           0           0           0           0
           0           0           0           1           0           0
           0           0           1           0           0           0
           0           0           4          40           0           0
           0           0           0           0           0           0
           0           0           0           0           0           0
           0           0           0           0           0           0
           0           0           0           0           0           0
           0           0           0           0           0           0
           0           0           0           0           0           0
           0           0           0           0
Num RLSW                                   I               40
RLSW                                       R   N=          40
  1.00000000E+00  1.00000000E+00  1.00000000E+00  1.00000000E+00  1.00000000E+00
  0.00000000E+00  0.00000000E+00  1.00000000E+00  0.00000000E+00  0.00000000E+00
  0.00000000E+00  0.00000000E+00  1.00000000E+00  0.00000000E+00  0.00000000E+00
  0.00000000E+00  0.00000000E+00  1.00000000E+00  0.00000000E+00  0.00000000E+00
  0.00000000E+00  0.00000000E+00  1.00000000E+00  0.00000000E+00  0.00000000E+00
  0.00000000E+00  0.00000000E+00  1.00000000E+00  0.00000000E+00  0.00000000E+00
  0.00000000E+00  0.00000000E+00  1.00000000E+00  0.00000000E+00  0.00000000E+00
  0.00000000E+00  0.00000000E+00  0.00000000E+00  1.00000000E+00  1.00000000E+00
MxBond                                     I                4
NBond                                      I   N=           8
           4           3           2           1           1           1
           1           1
IBond                                      I   N=          32
           2           3           6           7           1           4
           5           0           1           8           0           0
           2           0           0           0           2           0
           0           0           1           0           0           0
           1           0           0           0           3           0
           0           0
RBond                                      R   N=          32
  1.00000000E+00  1.00000000E+00  1.00000000E+00  1.00000000E+00  1.00000000E+00
  1.00000000E+00  1.00000000E+00  0.00000000E+00  1.00000000E+00  1.00000000E+00
  0.00000000E+00  0.00000000E+00  1.00000000E+00  0.00000000E+00  0.00000000E+00
  0.00000000E+00  1.00000000E+00  0.00000000E+00  0.00000000E+00  0.00000000E+00
  1.00000000E+00  0.00000000E+00  0.00000000E+00  0.00000000E+00  1.00000000E+00
  0.00000000E+00  0.00000000E+00  0.00000000E+00  1.00000000E+00  0.00000000E+00
  0.00000000E+00  0.00000000E+00
Virial Ratio                               R      2.007349949748673E+00
SCF Energy                                 R     -1.514891688234586E+02
Total Energy                               R     -1.514891688234586E+02
S**2                                       R      7.658091539530822E-01
S**2 after annihilation                    R      7.501923822501655E-01
RMS Force                                  R      3.105507513470962E-07
RMS Density                                R      1.528748254447275E-09
External E-field                           R   N=          35
  0.00000000E+00  0.00000000E+00  0.00000000E+00  0.00000000E+00  0.00000000E+00
  0.00000000E+00  0.00000000E+00  0.00000000E+00  0.00000000E+00  0.00000000E+00
  0.00000000E+00  0.00000000E+00  0.00000000E+00  0.00000000E+00  0.00000000E+00
  0.00000000E+00  0.00000000E+00  0.00000000E+00  0.00000000E+00  0.00000000E+00
  0.00000000E+00  0.00000000E+00  0.00000000E+00  0.00000000E+00  0.00000000E+00
  0.00000000E+00  0.00000000E+00  0.00000000E+00  0.00000000E+00  0.00000000E+00
  0.00000000E+00  0.00000000E+00  0.00000000E+00  0.00000000E+00  0.00000000E+00
IOpCl                                      I                1
IROHF                                      I                0
Alpha Orbital Energies                     R   N=          20
 -2.02611481E+01 -1.10898890E+01 -1.10206792E+01 -1.28223529E+00 -9.67995923E-01
 -7.97037806E-01 -6.24494083E-01 -5.56379377E-01 -5.41390977E-01 -5.01845120E-01
 -4.28088803E-01 -3.64344447E-01 -3.38243579E-01  5.76198710E-01  6.27163233E-01
  6.31181110E-01  6.79711704E-01  7.29538025E-01  7.42666302E-01  8.23037379E-01
Beta Orbital Energies                      R   N=          20
 -2.02590251E+01 -1.10941353E+01 -1.09897577E+01 -1.27269394E+00 -9.14268917E-01
 -7.52092409E-01 -6.18861043E-01 -5.46169432E-01 -5.21504947E-01 -4.87523752E-01
 -4.08028110E-01 -3.52207022E-01  3.01099343E-01  5.94406073E-01  6.34515478E-01
  6.82791188E-01  6.90596240E-01  7.30713561E-01  7.70794616E-01  8.44742814E-01
Alpha MO coefficients                      R   N=         400
  5.19317779E-04 -4.14574368E-03 -3.41091090E-03  1.92198823E-03  5.17423667E-04
 -2.00139969E-05  2.42040601E-04  3.44654104E-04 -1.37799988E-04  1.65534085E-06
  9.94207511E-01  2.56760776E-02 -2.70760273E-03 -6.27831581E-04  2.80150067E-03
 -1.51729926E-05  6.31980688E-05  3.23202806E-04  3.18729486E-04 -5.73406589E-03
  9.92192131E-01  3.57003946E-02 -6.15205708E-04  6.42962326E-04 -1.18900892E-05
 -1.87083986E-03 -5.77933686E-03 -3.50114773E-03 -2.41970229E-03 -2.12237004E-04
  4.28719355E-04 -4.21639162E-03  2.37456426E-03 -1.62543199E-03 -7.09481248E-06
  7.03927295E-05  7.66433090E-05 -6.92213226E-03 -6.86707715E-03 -1.09141598E-03
  2.89781336E-03 -5.85217319E-03  3.50204768E-03  2.71708819E-03  2.75366383E-04
  9.91911656E-01  3.64130351E-02  9.15523766E-04 -1.28963073E-03 -9.30011344E-05
 -1.24243053E-05  2.81939105E-04 -3.75421860E-05  1.99144510E-05  9.82687456E-05
 -7.38989039E-03 -7.40505150E-03 -6.25761137E-05 -6.68622583E-05 -3.29387728E-04
 -8.22744120E-02  2.07917185E-01  7.82963435E-02 -5.28479207E-02 -4.57774491E-03
 -2.07441518E-02  5.21097431E-02  2.24281240E-02  7.23123349E-03  9.86591410E-04
 -2.24038478E-01  8.07718539E-01 -8.87583058E-02 -1.21626652E-02  7.81813145E-02
  6.45501080E-03  6.21574883E-03  2.72344170E-02  2.69390031E-02  1.43337025E-01
 -1.32650118E-01  3.70817127E-01 -1.21961873E-01 -1.64813661E-02  1.77049166E-03
 -1.92366509E-01  5.70498244E-01  4.27727222E-02  3.51771785E-02  6.78736524E-03
  6.44455807E-02 -2.59976300E-01 -6.38732359E-02  4.88281314E-02 -2.89009608E-02
  1.28004489E-01  1.31696410E-01  9.78318855E-02  9.90868661E-02 -8.27434894E-02
 -1.49076128E-01  4.67084792E-01  6.01163086E-02  1.53779896E-01  5.45411488E-03
  1.28554370E-01 -4.17716379E-01  1.08430700E-01  1.25414996E-01  6.10595249E-03
  3.91179487E-02 -1.68019502E-01 -1.02960621E-01  1.66172057E-01 -3.59737712E-02
 -1.67587202E-01 -1.75849684E-01  2.07508221E-01  1.99202134E-01 -1.41907434E-01
 -1.06469564E-02  2.24704371E-02 -1.01496292E-01  1.79991759E-02  4.00817579E-01
  8.20819074E-03 -2.79299442E-02  2.95230048E-02  3.81130119E-02  2.86817271E-01
  3.32245063E-02 -1.62512542E-01  6.15678053E-02 -1.39995217E-01  2.99122838E-01
 -2.02057689E-01  1.34113466E-01 -1.95539671E-01  2.88991299E-01  2.31406769E-01
  8.47368431E-03 -1.02685613E-03  3.34586410E-01 -3.94743458E-02  8.12567639E-02
 -9.42447795E-04 -2.62093990E-03 -1.27726141E-01 -2.65137012E-01  2.78421444E-01
 -2.20406662E-02  1.13389248E-01 -1.19951271E-01  4.05254695E-01 -1.50987231E-01
 -9.31337730E-02  3.16158784E-01 -1.03468903E-01  2.88446943E-02 -3.24747726E-01
  2.72112875E-02 -1.15287180E-01  4.48968863E-02  4.70986789E-01  4.36989328E-02
 -7.21729061E-03  2.87849708E-02 -4.03093485E-01 -3.08031484E-02 -8.93110871E-02
 -3.01832930E-02  1.44338588E-01  4.18210731E-01  1.01088083E-01  9.90890182E-02
  1.78021767E-01  6.18386712E-02  1.99082973E-01  1.90172926E-01  5.99104367E-02
  1.00756638E-02 -5.18262722E-02 -2.31806258E-01  1.05260889E-01 -2.73353114E-01
 -8.93889176E-03  4.13900509E-02 -3.97692365E-03  1.71649090E-01  4.00967670E-01
 -3.72820411E-02  1.85369941E-01  2.15097571E-01 -1.85456300E-01 -2.74851985E-01
 -3.47793496E-01  2.31176280E-01  2.36981256E-01 -1.82077771E-01 -2.36728123E-03
  1.39386342E-02 -4.46219963E-02 -1.83471847E-01 -1.18364896E-01  2.48880986E-01
 -3.14870195E-02  1.38726302E-01  4.44438094E-04  3.68330930E-01 -7.63813804E-02
 -7.36303626E-02  3.83505091E-01  3.27230923E-01  1.98598567E-01 -3.72166970E-01
  1.13243576E-02 -2.02363290E-01 -3.38739419E-01  1.53857539E-01 -3.09921808E-01
 -1.45205631E-04  1.30864578E-02  5.41710670E-03 -1.43760875E-01 -1.41316734E-01
 -3.34250898E-02  1.54503667E-01 -6.34502390E-02  3.55757343E-01  7.25881045E-02
  1.29039716E-02 -6.93760432E-02  1.90841982E-01  5.56943145E-01  5.93518109E-01
 -1.23124376E-01 -3.92150359E-02  1.17393931E-02 -3.17097447E-01  3.61619581E-02
 -6.09381887E-03  6.36618120E-03 -1.42950057E-01  2.24767667E-02 -1.30221929E-02
  1.22430034E-02 -8.05126440E-02  6.52391544E-01 -5.29590645E-01 -4.95435482E-02
 -1.12732867E-02  6.22969380E-02  4.99591778E-01  2.02689198E-01  7.47280610E-02
  2.19528803E-02  2.87862143E-02  6.30992217E-02  1.18979833E-02 -1.73904663E-02
 -2.95728734E-02  1.14052209E-01  6.63393009E-01 -2.42398277E-01 -1.67052166E-01
 -5.68218372E-02  3.63004010E-01 -2.65156030E-02  1.09095859E-01 -4.29951434E-02
  1.18817771E-01 -7.52594671E-01  4.17612393E-01  1.29029284E-01 -4.98816436E-01
 -2.29435365E-01 -1.46975158E-01 -7.99400970E-02  1.47872979E-01  7.93391423E-01
 -4.29495749E-02  2.19160187E-01  2.81452268E-01 -3.55751047E-01  7.23858607E-01
 -9.59097151E-03  6.82144066E-02 -1.35163728E-01 -8.49909140E-02  4.69636122E-01
  1.20112808E-02 -6.42696871E-02  2.78773976E-01 -2.86343318E-01  1.19303669E-02
  3.36028459E-01 -5.13309818E-01  6.84240342E-01 -5.98797321E-01 -2.67457520E-01
  1.04121347E-01 -5.73719812E-01  3.52859632E-01  5.97806230E-01  8.62398097E-02
 -2.07419549E-01  1.28804350E+00  3.07541595E-01 -9.51498385E-02  3.06207178E-02
 -3.39579762E-02  2.14708242E-01 -2.33844397E-01 -7.16028138E-02  9.70532493E-02
 -6.06369787E-01 -6.66480337E-01  5.88733782E-03 -3.29046174E-02 -1.61812731E-01
  2.78631225E-02 -1.10740819E-01 -2.72612268E-01  5.44444259E-01  3.56623617E-01
  2.76377462E-02 -1.87345419E-01  2.85659933E-01  1.40163414E-01  3.89475077E-01
  8.35253207E-03 -7.27613661E-02 -3.75528858E-01  5.01024761E-01 -3.76315129E-01
  5.68882205E-01 -8.17310465E-02 -1.74771659E-02 -4.98745715E-01  6.55965988E-01
 -1.97050986E-01  1.21533092E+00  2.50200783E-01  6.02790590E-01  3.55905562E-02
  1.64134804E-02 -9.92633743E-02  2.77038420E-02  2.71415704E-02 -1.54228697E-01
  1.87606655E-02 -1.05342840E-01  2.17867641E-01 -3.18864483E-01  5.38493907E-02
 -3.96622165E-02  2.12293062E-01 -8.65738091E-01 -8.09434730E-01 -1.62979406E-01
  9.72472989E-02 -6.20467087E-01  6.53295484E-01  1.30527470E-01  2.60020160E-02
  2.79526018E-02 -2.19994675E-01  7.16640501E-01  7.77834157E-01 -5.44951683E-03
 -5.45785421E-03  3.98453153E-02  5.20523407E-02 -2.33521968E-01  1.08944126E-01
  5.07558621E-01  6.34547031E-01  1.90294351E-01  1.70268070E-01 -2.38656618E-01
 -1.98733816E-02  1.13396543E-01  8.64741340E-02  5.88563191E-02 -7.53644009E-01
  4.41803832E-03 -2.90501969E-02  5.38783443E-03 -6.77898020E-02  9.54156971E-01
  1.78310109E-03 -7.23931687E-03  8.47662885E-02 -1.24078761E-01  1.59124224E-01
  7.14445839E-01 -6.60859029E-01 -5.27794119E-01  4.50018554E-01 -1.23478383E-01
Beta MO coefficients                       R   N=         400
  5.16447633E-04 -4.12217360E-03 -3.39216045E-03  1.91184454E-03  5.13456364E-04
 -1.95575554E-05  2.43705599E-04  3.57977006E-04 -1.51926246E-04  6.28057262E-08
  9.94251573E-01  2.54892135E-02 -2.68269847E-03 -6.19937053E-04  2.78393410E-03
 -1.60256233E-05  6.20538319E-05  3.23252336E-04  3.18891043E-04 -5.69061726E-03
  9.92097951E-01  3.61058495E-02 -6.30953278E-04  6.34889780E-04 -1.23489418E-05
 -7.49103266E-04 -5.76180868E-03 -3.54261492E-03 -2.41696688E-03 -2.11631532E-04
  4.34051664E-04 -4.26779041E-03  2.38534353E-03 -1.64552220E-03 -7.41308322E-06
  5.98137055E-05  6.60949751E-05 -6.99848957E-03 -6.94261908E-03 -1.10191632E-03
  1.70057673E-03 -5.16877382E-03  2.99688531E-03  2.42603250E-03  2.47237058E-04
  9.92918816E-01  3.20135763E-02  9.96162893E-04 -1.32013548E-03 -9.71102663E-05
 -1.88453551E-05  2.96231254E-04 -6.98846316E-05  3.20146013E-05  1.04009313E-04
 -6.44444851E-03 -6.45980353E-03 -6.29389265E-05 -6.70544046E-05 -3.25295156E-04
 -8.51792974E-02  2.21782126E-01  8.17217925E-02 -5.58503234E-02 -4.73467393E-03
 -1.57920662E-02  3.33921281E-02  1.88668247E-02  8.52801577E-03  1.02783923E-03
 -2.22868315E-01  8.01027606E-01 -7.90089818E-02 -1.14445773E-02  7.64792948E-02
  6.03805307E-03  5.77465470E-03  2.80885910E-02  2.78366014E-02  1.46932500E-01
 -1.79492545E-01  5.36350440E-01 -1.20141909E-01  1.51293307E-02  4.03542781E-03
 -1.28516367E-01  3.34941385E-01  8.16368523E-02  3.54657788E-02  5.80266335E-03
  7.43069500E-02 -3.05200733E-01 -9.76981574E-02  8.58435414E-02 -3.75898322E-02
  1.06948518E-01  1.09958943E-01  1.51990654E-01  1.53237063E-01 -1.19789901E-01
  9.54227440E-02 -3.05432501E-01 -1.21023593E-01 -1.78441147E-01 -7.12782028E-04
 -1.61149480E-01  4.64811877E-01 -5.48387006E-02 -1.22310850E-01 -3.00740508E-03
 -1.77357555E-02  7.73042616E-02  5.34949324E-02 -1.61329358E-01  3.21419059E-02
  2.52539445E-01  2.66783172E-01 -1.68725190E-01 -1.54487067E-01  1.22823251E-01
 -1.21723509E-02  2.77638820E-02 -1.06720476E-01  2.41679593E-02  4.22382173E-01
  1.21942846E-02 -3.83382140E-02  3.66579946E-02  2.80376888E-02  2.20744106E-01
  3.60600565E-02 -1.75913084E-01  5.73213923E-02 -1.45163994E-01  3.16641682E-01
 -2.01478383E-01  1.12507121E-01 -1.96724822E-01  3.00594753E-01  2.45376262E-01
  1.56420421E-02 -3.37078592E-02  3.52635421E-01  1.43342678E-02  1.27990613E-01
 -6.00299409E-03  1.61012005E-02 -1.72995135E-01 -2.03917402E-01  2.33354843E-01
 -2.72131585E-02  1.37833186E-01 -3.91011397E-02  4.29711975E-01 -1.21892753E-01
 -7.36514066E-02  3.44583843E-01 -1.13007229E-01  7.29234583E-02 -3.18892874E-01
  2.85383085E-02 -1.32581695E-01  4.55121743E-02  4.87510361E-01  4.89556196E-02
 -3.04307008E-03  2.91454885E-04 -2.40991497E-01 -1.48971386E-01 -1.83355065E-01
 -1.58034247E-02  7.52981816E-02  3.80735147E-01  6.15017805E-02  1.80280581E-01
  2.95361940E-01  6.92059166E-03  2.05821431E-01  1.97475568E-01  1.23272559E-01
  1.20428123E-02 -6.61084355E-02 -2.18396956E-01  2.15765749E-01 -2.69661525E-01
 -2.46482851E-03  6.66192221E-03  7.89732073E-03  1.22861584E-02  3.54870353E-01
 -2.97037316E-02  1.48148061E-01  2.38373802E-01 -2.07715358E-01 -1.98624663E-01
 -3.45891549E-01  3.21447437E-01  2.99236527E-01 -1.30193297E-01  6.05729530E-02
 -1.43493381E-02  5.62540177E-02  2.85783963E-01  1.71299072E-02 -2.36734382E-01
  2.33292267E-02 -8.50584353E-02 -1.14883162E-01 -1.54116470E-01  6.62871996E-02
  8.18945113E-02 -4.30362510E-01 -4.08661082E-01 -5.51364533E-02  4.91178015E-01
 -3.86364237E-02  1.62397653E-01  2.53989213E-01 -2.12410923E-01  2.87088997E-01
 -3.36186016E-03  2.19445412E-02 -1.37168413E-01 -1.40649816E-01 -1.09947842E-01
 -3.36130984E-02  1.30768521E-01  1.69209297E-01  1.71722889E-01  4.05416162E-02
 -5.29336336E-03  2.99260788E-02  4.30831489E-01  5.97116988E-01  5.11197429E-01
 -1.09634544E-01 -4.26854805E-02 -3.67841876E-03 -2.63289698E-01 -1.46196647E-02
  1.86189822E-02 -5.74168029E-02 -9.04962815E-02  1.36231890E-01  1.39946307E-02
 -4.47415461E-02  2.04695323E-01 -6.27796360E-01  6.65136290E-01  6.58571423E-02
 -2.90657240E-02  1.65214429E-01 -2.90231700E-01  3.81833892E-02  7.85381715E-02
 -4.80351314E-02 -4.41553989E-02 -1.13162879E-01 -1.00277326E-01 -7.48338376E-02
 -2.53843188E-02  1.04439545E-01  5.27240266E-01 -1.57203987E-01 -2.68287000E-01
 -4.78303216E-02  2.80956925E-01 -8.41878478E-02  2.26398155E-01 -7.49871878E-02
  1.14463313E-01 -7.28862670E-01  3.39820823E-01  2.31568284E-01 -5.25965263E-01
 -1.87680320E-01 -3.40638201E-02 -2.19939800E-01  2.00049330E-01  8.83215374E-01
 -4.06539327E-02  2.05540723E-01  3.76791765E-01 -3.20142835E-01  7.52524641E-01
 -2.44098114E-02  1.46680059E-01 -1.41307480E-01  2.33857343E-02  4.41982265E-01
  3.00084696E-02 -1.80495062E-01  3.10451415E-01 -2.24749250E-01 -1.02611682E-01
  2.84196486E-01 -4.69500617E-01  6.79544169E-01 -6.44467209E-01 -8.63688538E-02
  7.87299641E-02 -4.24206048E-01  3.34395358E-01  7.36103380E-01  1.21044883E-01
 -2.08439354E-01  1.25346014E+00  4.12597278E-01 -8.83894658E-02  6.29169712E-02
 -2.26292142E-02  1.41869062E-01 -2.48948133E-01  7.01828924E-03  6.69514622E-03
 -4.92539491E-01 -6.04009663E-01 -1.32275042E-01 -2.02035933E-01 -6.51978836E-03
 -1.25213478E-03  6.27315628E-02 -4.81418097E-01  4.37298857E-01  3.41527438E-01
  7.85152881E-02 -4.75487115E-01  1.95745162E-01  9.79397852E-03  3.05213065E-01
  3.51781547E-03 -4.19362942E-02 -3.87520999E-01  5.27910298E-01 -3.50599598E-01
  5.63602896E-01  5.46444599E-02 -4.28391512E-02 -5.09549096E-01  6.25279650E-01
 -2.07094337E-01  1.27362105E+00  2.06865173E-01  5.16184228E-01 -1.44319631E-02
  4.37147061E-02 -2.59348787E-01 -8.73806509E-03  2.05116267E-02 -1.48341598E-01
  2.11471361E-02 -1.19507904E-01  2.62145158E-01 -3.28407271E-01  6.20835558E-02
  3.33612850E-02  2.68477906E-01 -8.81451501E-01 -7.63515627E-01 -1.71941582E-01
  9.44064935E-02 -6.05081505E-01  5.75459859E-01  1.78477318E-01  3.02069391E-02
  3.94486580E-02 -2.86515091E-01  7.49571434E-01  8.23081899E-01  3.26152712E-02
 -5.35812627E-03  3.67588837E-02  8.62281582E-03 -1.65474071E-01  7.20830683E-02
  5.66700667E-01  6.35432539E-01  1.50983276E-01  1.31577451E-01 -1.61103139E-01
 -1.62851005E-02  9.31191283E-02  6.57476460E-02  4.72728879E-02 -6.88104737E-01
  5.33724538E-03 -3.40402359E-02 -1.89666207E-03 -7.62598961E-02  1.02817123E+00
  1.71097831E-03 -7.68306015E-03  7.26587127E-02 -1.01783044E-01  1.37895034E-01
  7.39237023E-01 -6.88323146E-01 -4.62454751E-01  4.06050158E-01 -9.97565261E-02
Total SCF Density                          R   N=         210
  2.06671089E+00 -2.19917478E-01  8.77911852E-01  5.56400439E-03  7.91296181E-03
  5.78546042E-01 -1.84159239E-03 -3.16395025E-02  2.34985355E-02  6.36983450E-01
 -3.88087610E-03  1.16094902E-02  1.48374268E-02 -2.29788092E-02  6.64098356E-01
  1.75877087E-02 -4.56343473E-02  8.23738241E-02  6.48041120E-02  5.78512056E-03
  2.07080997E+00 -4.21275800E-02  5.67933489E-02 -2.37514818E-01 -1.97854389E-01
 -1.85056064E-02 -2.33365413E-01  9.13475182E-01 -7.73808534E-02  2.21927746E-01
 -2.88806802E-01 -2.79354347E-01 -2.56396669E-02  1.24331533E-02 -6.39671504E-02
  7.64711371E-01 -4.69777121E-02  1.33562154E-01 -2.60611559E-01 -1.50745502E-01
 -1.25986786E-02 -1.64606530E-02  1.09103357E-01 -1.77077052E-01  7.96136456E-01
 -4.67012111E-03  1.32671890E-02 -2.57886187E-02 -1.55583481E-02 -6.20015779E-03
 -1.32424082E-03  9.10994383E-03 -1.40584540E-02  2.12363766E-02  6.10992212E-01
  4.36429332E-03  3.27372971E-03 -2.66238272E-02  1.57917729E-02  4.32105531E-03
 -5.57899514E-04 -1.84555412E-03  1.27073084E-02 -1.17329088E-02 -1.84869102E-03
  2.10788153E+00  6.38368777E-03 -1.17615582E-01  2.71086636E-02 -2.64047522E-02
 -3.08742950E-04 -1.39075080E-03  2.85236669E-02 -5.09659645E-02  6.59155024E-02
  1.05930861E-02 -4.56082683E-01  2.00424296E+00  9.54213276E-02 -3.19940717E-01
 -4.44938389E-01  3.24082037E-01  4.49864615E-02 -3.37540271E-02  1.35579699E-01
  1.72208615E-01  4.82945252E-02  3.99380822E-03 -7.31461685E-02  3.90003143E-01
  1.23288802E+00 -4.95375644E-02  1.77037517E-01  2.63824550E-01 -1.30444410E-01
  1.68473926E-03 -2.09486518E-02  1.00468212E-01  4.78125784E-02  6.89970746E-02
  1.06066739E-02 -1.59273107E-02  1.00993826E-01  4.10994463E-01  1.29507332E+00
 -1.59879827E-02  5.12184523E-02  1.07498177E-01 -4.28111501E-02  1.65212731E-02
 -6.09868282E-03  3.47937256E-02  1.11759386E-02  4.26413811E-02 -1.68744324E-02
  7.44060075E-02 -4.13998268E-01  1.09332909E-01  4.44249450E-01  1.40019394E+00
  2.11874059E-02 -8.07245078E-02  9.24430798E-02  7.02828473E-02  6.81345906E-02
 -1.09563704E-01  2.66963796E-01 -1.42544576E-01 -1.94694322E-01 -4.95977510E-01
  3.63355794E-04 -8.04683969E-04 -9.47173455E-03 -1.78651019E-02 -9.29627654E-03
  6.04192322E-01  2.17468357E-02 -8.33367652E-02  9.48241096E-02  8.69646619E-02
 -5.52452601E-02 -1.09004714E-01  2.63768680E-01 -1.40439253E-01 -2.87262474E-01
  4.51599255E-01  2.11222504E-03 -1.05644949E-02 -1.37071546E-02 -9.04754466E-03
 -1.39861978E-02 -1.55918975E-01  6.13193782E-01 -9.53632553E-02  2.19280085E-01
 -2.18968842E-03  3.82188726E-01 -4.55765128E-01  2.33461938E-02 -9.92465197E-02
 -4.86447478E-02 -9.27510240E-02  3.46701340E-02  2.69650559E-02 -1.39796991E-01
  3.88181398E-02 -9.31317817E-02  8.43521444E-02 -5.41535182E-02  1.04431841E-01
  6.17327626E-01 -9.52668516E-02  2.24061308E-01  1.04528251E-02  2.67890938E-01
  5.21250841E-01  2.59785250E-02 -1.11092853E-01 -6.55005787E-02 -9.28578825E-02
 -5.49238598E-02  4.75264169E-03 -5.77108158E-03  2.76777629E-02 -1.62634684E-01
 -2.01287955E-01  1.08660948E-01 -5.16221069E-02 -1.36544525E-01  6.42536039E-01
  2.32341328E-02 -1.10384037E-01 -1.07211799E-01  9.75517859E-02 -2.90661740E-02
  9.03811265E-03 -3.90237395E-02 -1.95809546E-02 -2.95582597E-02 -8.30530296E-03
 -2.42067418E-02 -5.69232890E-02 -4.73050266E-02 -4.65785598E-01  5.59001109E-01
 -1.36041005E-04  1.30062123E-02  1.39833031E-01 -4.60312847E-02  6.22289815E-01
Spin SCF Density                           R   N=         210
 -2.10830648E-03  9.72996361E-03 -4.00817889E-02 -2.98915635E-03  1.34186503E-02