--                                                                      
Freq      UHF                                                         STO-3G              
Number of atoms                            I                8
Info1-9                                    I   N=           9
          14          14        1001           0           0         100
           6           1           2
Charge                                     I                0
Multiplicity                               I                2
Number of electrons                        I               25
Number of alpha electrons                  I               13
Number of beta electrons                   I               12
Number of basis functions                  I               20
Number of independent functions            I               20
Number of point charges in /Mol/           I                0
Number of translation vectors              I                0
Atomic numbers                             I   N=           8
           6           6           8           1           1           1
           1           1
Nuclear charges                            R   N=           8
  6.00000000E+00  6.00000000E+00  8.00000000E+00  1.00000000E+00  1.00000000E+00
  1.00000000E+00  1.00000000E+00  1.00000000E+00
Current cartesian coordinates              R   N=          24
  1.61011388E-02  1.07034935E+00  1.00184964E-01 -2.46023716E+00 -4.75492067E-01
 -8.13330561E-03  2.25659340E+00 -4.68029624E-01 -1.23369832E-01 -4.07847607E+00
  7.73907965E-01  1.68484362E-01 -2.60220228E+00 -1.48232341E+00 -1.79018809E+00
 -2.52075685E+00 -1.84460129E+00  1.51877570E+00  5.03221252E-02  2.46787386E+00
 -1.42599672E+00  1.31946695E-01  2.10489322E+00  1.88897493E+00
Number of symbols in /Mol/                 I                0
Force Field                                I                0
Atom Types                                 C   N=           8
                                                            
                                    
Int Atom Types                             I   N=           8
           0           0           0           0           0           0
           0           0
MM charges                                 R   N=           8
  0.00000000E+00  0.00000000E+00  0.00000000E+00  0.00000000E+00  0.00000000E+00
  0.00000000E+00  0.00000000E+00  0.00000000E+00
Integer atomic weights                     I   N=           8
          12          12          16           1           1           1
           1           1
Real atomic weights                        R   N=           8
  1.20000000E+01  1.20000000E+01  1.59949146E+01  1.00782504E+00  1.00782504E+00
  1.00782504E+00  1.00782504E+00  1.00782504E+00
Atom fragment info                         I   N=           8
           0           0           0           0           0           0
           0           0
Atom residue num                           I   N=           8
           0           0           0           0           0           0
           0           0
Nuclear spins                              I   N=           8
           0           0           0           1           1           1
           1           1
Nuclear ZEff                               R   N=           8
 -3.60000000E+00 -3.60000000E+00 -5.60000000E+00 -1.00000000E+00 -1.00000000E+00
 -1.00000000E+00 -1.00000000E+00 -1.00000000E+00
Nuclear QMom                               R   N=           8
  0.00000000E+00  0.00000000E+00  0.00000000E+00  0.00000000E+00  0.00000000E+00
  0.00000000E+00  0.00000000E+00  0.00000000E+00
Nuclear GFac                               R   N=           8
  0.00000000E+00  0.00000000E+00  0.00000000E+00  2.79284600E+00  2.79284600E+00
  2.79284600E+00  2.79284600E+00  2.79284600E+00
MicOpt                                     I   N=           8
          -1          -1          -1          -1          -1          -1
          -1          -1
Number of residues                         I                0
Number of secondary structures             I                0
Number of contracted shells                I               11
Number of primitive shells                 I               33
Pure/Cartesian d shells                    I                0
Pure/Cartesian f shells                    I                0
Highest angular momentum                   I                1
Largest degree of contraction              I                3
Shell types                                I   N=          11
           0          -1           0          -1           0          -1
           0           0           0           0           0
Number of primitives per shell             I   N=          11
           3           3           3           3           3           3
           3           3           3           3           3
Shell to atom map                          I   N=          11
           1           1           2           2           3           3
           4           5           6           7           8
Primitive exponents                        R   N=          33
  7.16168373E+01  1.30450963E+01  3.53051216E+00  2.94124936E+00  6.83483096E-01
  2.22289916E-01  7.16168373E+01  1.30450963E+01  3.53051216E+00  2.94124936E+00
  6.83483096E-01  2.22289916E-01  1.30709321E+02  2.38088661E+01  6.44360831E+00
  5.03315132E+00  1.16959612E+00  3.80388960E-01  3.42525091E+00  6.23913730E-01
  1.68855404E-01  3.42525091E+00  6.23913730E-01  1.68855404E-01  3.42525091E+00
  6.23913730E-01  1.68855404E-01  3.42525091E+00  6.23913730E-01  1.68855404E-01
  3.42525091E+00  6.23913730E-01  1.68855404E-01
Contraction coefficients                   R   N=          33
  1.54328967E-01  5.35328142E-01  4.44634542E-01 -9.99672292E-02  3.99512826E-01
  7.00115469E-01  1.54328967E-01  5.35328142E-01  4.44634542E-01 -9.99672292E-02
  3.99512826E-01  7.00115469E-01  1.54328967E-01  5.35328142E-01  4.44634542E-01
 -9.99672292E-02  3.99512826E-01  7.00115469E-01  1.54328967E-01  5.35328142E-01
  4.44634542E-01  1.54328967E-01  5.35328142E-01  4.44634542E-01  1.54328967E-01
  5.35328142E-01  4.44634542E-01  1.54328967E-01  5.35328142E-01  4.44634542E-01
  1.54328967E-01  5.35328142E-01  4.44634542E-01
P(S=P) Contraction coefficients            R   N=          33
  0.00000000E+00  0.00000000E+00  0.00000000E+00  1.55916275E-01  6.07683719E-01
  3.91957393E-01  0.00000000E+00  0.00000000E+00  0.00000000E+00  1.55916275E-01
  6.07683719E-01  3.91957393E-01  0.00000000E+00  0.00000000E+00  0.00000000E+00
  1.55916275E-01  6.07683719E-01  3.91957393E-01  0.00000000E+00  0.00000000E+00
  0.00000000E+00  0.00000000E+00  0.00000000E+00  0.00000000E+00  0.00000000E+00
  0.00000000E+00  0.00000000E+00  0.00000000E+00  0.00000000E+00  0.00000000E+00
  0.00000000E+00  0.00000000E+00  0.00000000E+00
Coordinates of each shell                  R   N=          33
  1.61011388E-02  1.07034935E+00  1.00184964E-01  1.61011388E-02  1.07034935E+00
  1.00184964E-01 -2.46023716E+00 -4.75492067E-01 -8.13330561E-03 -2.46023716E+00
 -4.75492067E-01 -8.13330561E-03  2.25659340E+00 -4.68029624E-01 -1.23369832E-01
  2.25659340E+00 -4.68029624E-01 -1.23369832E-01 -4.07847607E+00  7.73907965E-01
  1.68484362E-01 -2.60220228E+00 -1.48232341E+00 -1.79018809E+00 -2.52075685E+00
 -1.84460129E+00  1.51877570E+00  5.03221252E-02  2.46787386E+00 -1.42599672E+00
  1.31946695E-01  2.10489322E+00  1.88897493E+00
Constraint Structure                       R   N=          24
  1.61011388E-02  1.07034935E+00  1.00184964E-01 -2.46023716E+00 -4.75492067E-01
 -8.13330561E-03  2.25659340E+00 -4.68029624E-01 -1.23369832E-01 -4.07847607E+00
  7.73907965E-01  1.68484362E-01 -2.60220228E+00 -1.48232341E+00 -1.79018809E+00
 -2.52075685E+00 -1.84460129E+00  1.51877570E+00  5.03221252E-02  2.46787386E+00
 -1.42599672E+00  1.31946695E-01  2.10489322E+00  1.88897493E+00
Num ILSW                                   I              100
ILSW                                       I   N=         100
           1           0           0           0           2           0
           0           0           3           0           0          -1
           0           0           0           0           0           0
           0           0           1           0           1           0
           1           1           0           0           0           0
           0           0      100000           0          -1           0
           0           0           0           0           0           0
           0           0           0           1           0           0
           0           0           1           0           0           0
           0           0           4          40           0           0
           0           0           0           0           0           0
           0           0           0           0           0           0
           0           0           0           0           0           0
           0           0           0           0           0           0
           0           0           0           0           0           0
           0           0           0           0           0           0
           0           0           0           0
Num RLSW                                   I               40
RLSW                                       R   N=          40
  1.00000000E+00  1.00000000E+00  1.00000000E+00  1.00000000E+00  1.00000000E+00
  0.00000000E+00  0.00000000E+00  1.00000000E+00  0.00000000E+00  0.00000000E+00
  0.00000000E+00  0.00000000E+00  1.00000000E+00  0.00000000E+00  0.00000000E+00
  0.00000000E+00  0.00000000E+00  1.00000000E+00  0.00000000E+00  0.00000000E+00
  0.00000000E+00  0.00000000E+00  1.00000000E+00  0.00000000E+00  0.00000000E+00
  0.00000000E+00  0.00000000E+00  1.00000000E+00  0.00000000E+00  0.00000000E+00
  0.00000000E+00  0.00000000E+00  1.00000000E+00  0.00000000E+00  0.00000000E+00
  0.00000000E+00  0.00000000E+00  0.00000000E+00  1.00000000E+00  1.00000000E+00
MxBond                                     I                4
NBond                                      I   N=           8
           4           4           1           1           1           1
           1           1
IBond                                      I   N=          32
           2           3           7           8           1           4
           5           6           1           0           0           0
           2           0           0           0           2           0
           0           0           2           0           0           0
           1           0           0           0           1           0
           0           0
RBond                                      R   N=          32
  1.00000000E+00  1.00000000E+00  1.00000000E+00  1.00000000E+00  1.00000000E+00
  1.00000000E+00  1.00000000E+00  1.00000000E+00  1.00000000E+00  0.00000000E+00
  0.00000000E+00  0.00000000E+00  1.00000000E+00  0.00000000E+00  0.00000000E+00
  0.00000000E+00  1.00000000E+00  0.00000000E+00  0.00000000E+00  0.00000000E+00
  1.00000000E+00  0.00000000E+00  0.00000000E+00  0.00000000E+00  1.00000000E+00
  0.00000000E+00  0.00000000E+00  0.00000000E+00  1.00000000E+00  0.00000000E+00
  0.00000000E+00  0.00000000E+00
Virial Ratio                               R      2.008246501470375E+00
SCF Energy                                 R     -1.515444038505248E+02
Total Energy                               R     -1.515444038505248E+02
S**2                                       R      7.556490499139539E-01
S**2 after annihilation                    R      7.500105573546503E-01
RMS Force                                  R      1.081959477134446E-06
RMS Density                                R      1.591602283762839E-10
External E-field                           R   N=          35
  0.00000000E+00  0.00000000E+00  0.00000000E+00  0.00000000E+00  0.00000000E+00
  0.00000000E+00  0.00000000E+00  0.00000000E+00  0.00000000E+00  0.00000000E+00
  0.00000000E+00  0.00000000E+00  0.00000000E+00  0.00000000E+00  0.00000000E+00
  0.00000000E+00  0.00000000E+00  0.00000000E+00  0.00000000E+00  0.00000000E+00
  0.00000000E+00  0.00000000E+00  0.00000000E+00  0.00000000E+00  0.00000000E+00
  0.00000000E+00  0.00000000E+00  0.00000000E+00  0.00000000E+00  0.00000000E+00
  0.00000000E+00  0.00000000E+00  0.00000000E+00  0.00000000E+00  0.00000000E+00
IOpCl                                      I                1
IROHF                                      I                0
Alpha Orbital Energies                     R   N=          20
 -2.02841929E+01 -1.10919903E+01 -1.10444283E+01 -1.29718508E+00 -9.66145969E-01
 -7.99041821E-01 -6.29631562E-01 -5.69403957E-01 -5.20905664E-01 -5.19327909E-01
 -4.67761204E-01 -4.36221581E-01 -3.75945250E-01  5.67033242E-01  6.33996351E-01
  6.65608039E-01  7.02966548E-01  7.47323166E-01  7.61510561E-01  7.69092309E-01
Beta Orbital Energies                      R   N=          20
 -2.02557145E+01 -1.10956287E+01 -1.10442647E+01 -1.15989422E+00 -9.49580278E-01
 -7.84880233E-01 -5.95220877E-01 -5.59864173E-01 -5.12719415E-01 -4.81094855E-01
 -4.35288456E-01 -3.34013687E-01  3.52377773E-01  5.91752027E-01  6.44277876E-01
  6.62100708E-01  7.14457032E-01  7.49668386E-01  7.61755491E-01  7.76895619E-01
Alpha MO coefficients                      R   N=         400
  5.88813719E-04 -4.61993126E-03 -3.64816636E-03  2.49756701E-03  3.63195044E-04
 -1.86837340E-05  2.87594685E-04  2.25722465E-04 -1.34040120E-04 -2.02269326E-05
  9.94340205E-01  2.40113014E-02 -2.75224101E-03  1.88007510E-03  2.73552801E-04
 -5.85899340E-05 -8.01010428E-05 -8.01042203E-05  2.43754699E-04  2.43775673E-04
  9.92197890E-01  3.55567744E-02 -3.02269272E-04  8.93512135E-04  1.05340101E-04
 -2.92072933E-03 -5.55071385E-03 -3.56174793E-03 -2.13428040E-03 -1.46052133E-04
  5.08190003E-04 -4.72760803E-03  2.26705257E-03 -1.54468040E-03 -2.24889359E-04
  6.07283310E-05  1.67229888E-05  1.67233053E-05 -6.95472192E-03 -6.95476147E-03
  3.93504097E-03 -5.47814694E-03  3.53272924E-03  2.26893322E-03  1.61498205E-04
  9.91937480E-01  3.78033351E-02 -3.60293435E-04 -1.86559112E-04 -1.15265628E-05
 -5.89192044E-06  1.82086002E-04 -1.02671826E-04  4.28468986E-05  7.21754864E-06
 -7.03727473E-03 -7.01970665E-03 -7.01972129E-03  3.82955365E-05  3.83037593E-05
 -8.45135550E-02  2.14211780E-01  8.15122905E-02 -5.64073452E-02 -8.18074655E-03
 -1.76061937E-02  4.18162987E-02  1.99168123E-02  6.34836648E-03  2.04967964E-04
 -2.36687669E-01  8.84360550E-01 -8.37254390E-02  5.68262885E-02  8.28193301E-03
  4.73427280E-03  7.15277844E-03  7.15280031E-03  2.94803358E-02  2.94819894E-02
 -1.25312831E-01  3.52488268E-01 -1.26805579E-01 -7.75542302E-04  3.03576883E-03
 -1.85836785E-01  5.18977796E-01  3.26765750E-02  3.19013504E-02  2.68919778E-03
  6.89085880E-02 -2.91719994E-01 -6.11315186E-02  2.17264167E-02  3.88251658E-03
  1.38689701E-01  1.30956967E-01  1.30957153E-01  9.71968582E-02  9.71975774E-02
 -1.54945089E-01  4.81086342E-01  4.00858803E-02  1.66774218E-01  1.72784104E-02
  1.16416832E-01 -3.54170100E-01  1.19125028E-01  1.02504996E-01  8.29232188E-03
  6.40731849E-02 -2.92273716E-01 -9.47041623E-02  1.31259318E-01  1.67086401E-02
 -1.33530790E-01 -1.54370720E-01 -1.54368984E-01  2.21282586E-01  2.21290061E-01
  4.17118836E-06 -1.53525703E-05  1.06416773E-02 -4.72775887E-02  4.31904960E-01
 -2.08750416E-06  6.71113633E-06  5.66493258E-03 -2.52873096E-02  2.30902171E-01
 -2.68135607E-07  1.00412338E-06  1.18982037E-02 -5.27795644E-02  4.82433009E-01
  9.74956133E-06 -1.46907338E-01  1.46920172E-01 -2.69916436E-01  2.69923081E-01
  3.25412184E-02 -1.31178509E-01  2.16247443E-03  3.38555977E-01  3.69944134E-02
 -5.09056031E-03  1.27450254E-02 -3.69710591E-01  2.33493100E-01  3.46308073E-02
 -3.98571406E-02  1.97196469E-01  3.87025843E-01  7.03549247E-02 -1.78936076E-03
  3.76892772E-01 -9.42655099E-02 -9.43091019E-02  1.19092062E-01  1.19061493E-01
  1.35255694E-02 -4.89082433E-02  3.78682523E-01  2.01428325E-01  1.28890962E-02
  1.49295542E-03 -1.27135813E-02 -1.80045144E-01 -4.26526269E-01 -4.36946823E-02
  2.32810581E-02 -1.19987208E-01  6.19663115E-02  4.33889796E-01  4.76143051E-02
 -1.22954484E-01  2.29536275E-01  2.27450705E-01  9.01110445E-02  9.02607677E-02
 -4.14060882E-05  1.51341048E-04  4.25025351E-04 -7.49194233E-03  6.26785346E-02
 -6.04798619E-06  4.43206246E-05 -1.12221885E-02  5.36725702E-02 -4.78698293E-01
 -6.57983343E-05  3.39648870E-04  1.33647984E-02 -6.15331904E-02  5.50567116E-01
  3.37714958E-04  3.54369036E-01 -3.55706763E-01 -3.32720959E-02  3.27119485E-02
  9.36891914E-03 -6.68909136E-02 -2.99867334E-01  2.70877114E-01  3.70350652E-02
 -2.02784142E-03  6.50103347E-03  2.34254368E-01 -2.20296843E-01 -2.98841368E-02
 -4.52679939E-02  2.38509427E-01  4.85472039E-01 -3.46473952E-01 -4.98594308E-02
 -3.22369860E-01  1.27421053E-01  1.27421808E-01  1.50132551E-01  1.50124255E-01
 -2.54951498E-06  1.22916595E-05 -8.69087857E-03  3.84728162E-02 -3.51813146E-01
 -4.41368677E-06  1.83366400E-05  5.19057166E-03 -2.28211534E-02  2.08761991E-01
 -6.15784353E-08  7.58064074E-07  1.65321152E-02 -7.32002914E-02  6.69557885E-01
 -1.38699618E-05 -1.91814045E-01  1.91781863E-01  3.58155252E-01 -3.58222499E-01
 -7.37788464E-03  3.81040627E-02 -1.61564762E-01 -1.82539474E-01 -1.59700582E-02
 -3.08367177E-02  1.30723737E-01  2.84908766E-01  1.64517073E-01  1.09856700E-02
 -1.72315894E-03  1.08568148E-02  5.03527786E-01  7.04509808E-01  6.45985900E-02
 -9.12431293E-02 -6.25327714E-02 -6.25657076E-02 -1.56705669E-01 -1.56604208E-01
  6.04418057E-02 -2.61940210E-01 -5.95464623E-01  6.50002134E-01  8.58902911E-02
 -1.07847742E-02  5.82804437E-02 -1.76861348E-01  3.42492566E-01  4.18840844E-02
 -7.10038753E-02  4.37930864E-01 -6.06479601E-01  3.67382967E-01  5.51343115E-02
 -4.86932135E-01  2.20792220E-01  2.20727357E-01 -1.80231176E-01 -1.80333207E-01
 -1.62320670E-05  8.92226179E-05  1.94275185E-02 -8.66610411E-02  7.90672448E-01
  1.18962153E-05 -6.80989383E-05  1.56904702E-02 -7.01246733E-02  6.39705336E-01
  4.81438780E-06 -3.02106866E-05 -2.40960128E-03  1.09366660E-02 -1.00002800E-01
  4.85720407E-05  5.71268668E-01 -5.71313710E-01  6.59902079E-01 -6.59890323E-01
  1.17395601E-01 -6.87453119E-01  7.67346305E-01  5.11356943E-01  3.71844410E-02
 -8.44585961E-02  4.77690036E-01  8.75846082E-01  5.02393665E-01  3.35080778E-02
 -7.95239460E-04  4.33310798E-03 -9.42430309E-02 -9.87306155E-02 -8.49867150E-03
  1.30985027E-01  8.49723016E-02  8.48721186E-02  1.15942187E-02  1.14621964E-02
 -1.84922915E-01  1.12606821E+00  4.01781760E-01  4.16905327E-01  3.57449225E-02
 -6.10590146E-02  4.01344067E-01 -3.47713775E-01  2.06069872E-01  3.11513475E-02
  3.75454689E-02 -2.33855575E-01  2.62469559E-01 -2.88229859E-01 -3.80081089E-02
 -5.28358427E-01 -5.10868573E-02 -5.11350886E-02 -7.34347783E-01 -7.34325065E-01
  3.22718021E-02 -1.59950742E-01 -9.62437112E-02  3.40734826E-01  3.97233867E-02
 -1.76604959E-01  1.13025512E+00  1.07532107E-01 -7.53857169E-01 -8.52405642E-02
 -2.29953445E-02  1.46954227E-01 -1.84583998E-01  9.14833761E-02  1.45511071E-02
  2.96178669E-02 -8.58487931E-01 -8.58404709E-01 -5.07227623E-02 -5.07835996E-02
 -9.71844044E-02  6.29120879E-01 -2.48143395E-01  4.65871302E-01  5.71425998E-02
  1.45401170E-01 -9.29781107E-01  5.20291887E-01 -4.85356022E-01 -6.60109886E-02
 -9.70154471E-03  6.73749001E-02 -7.00235581E-02  3.78659915E-02  5.86561461E-03
  1.01797228E+00  1.64369027E-01  1.64465931E-01 -4.79770524E-01 -4.79795820E-01
  4.04000661E-06 -1.99153739E-05 -1.93391140E-02  8.59105081E-02 -7.84201938E-01
 -1.67190580E-06  1.03221885E-05  2.23219764E-02 -9.91574120E-02  9.04992830E-01
 -4.30034146E-06  2.79455089E-05  2.55753800E-03 -1.15150171E-02  1.05354426E-01
  6.92550915E-05  6.49293161E-01 -6.49372937E-01 -5.29651139E-01  5.29635387E-01
Beta MO coefficients                       R   N=         400
  5.39596927E-04 -4.21469406E-03 -3.32438948E-03  2.27908830E-03  3.31309533E-04
 -1.75210493E-05  2.65984528E-04  2.07588750E-04 -1.22592839E-04 -1.85280298E-05
  9.94891430E-01  2.17614021E-02 -2.54709002E-03  1.74044504E-03  2.53218319E-04
 -5.32770358E-05 -7.48551472E-05 -7.48566709E-05  2.26030815E-04  2.26052055E-04
  9.92113739E-01  3.59180010E-02 -2.83899076E-04  8.86287634E-04  1.04096577E-04
 -2.72184018E-03 -5.59755903E-03 -3.60240164E-03 -2.15018329E-03 -1.46793323E-04
  4.94955080E-04 -4.73270265E-03  2.26730390E-03 -1.54518462E-03 -2.24953340E-04
  5.65939346E-05  1.61823873E-05  1.61829989E-05 -7.02180778E-03 -7.02184594E-03
  3.74261638E-03 -5.48824330E-03  3.52879237E-03  2.27245770E-03  1.61981283E-04
  9.91942643E-01  3.77844619E-02 -3.60187984E-04 -1.86164974E-04 -1.14854131E-05
 -6.53473598E-06  1.85895758E-04 -1.04040228E-04  4.51438792E-05  7.49597784E-06
 -7.03326036E-03 -7.01599858E-03 -7.01601352E-03  4.01637721E-05  4.01749618E-05
 -1.27800020E-01  3.57090652E-01  9.71259336E-02 -7.13064594E-02 -1.01956571E-02
 -4.17669052E-02  1.05113262E-01  3.61917852E-02  1.38334993E-02  6.24118340E-04
 -2.04566255E-01  7.47369146E-01 -9.04434825E-02  6.13447827E-02  8.94144486E-03
  1.66846525E-02  2.04759518E-02  2.04762367E-02  5.69700132E-02  5.69721176E-02
 -9.02464021E-02  2.50355120E-01 -1.65899762E-01  1.14334820E-02  5.33379015E-03
 -1.89841387E-01  5.33864674E-01  1.60235061E-02  2.62528793E-02  2.48065965E-03
  1.00656059E-01 -4.01451286E-01 -2.81484519E-02 -2.12305696E-03  4.61765150E-04
  1.50336828E-01  1.39633477E-01  1.39633437E-01  6.96164220E-02  6.96144477E-02
 -1.54353016E-01  4.83480076E-01 -4.27631298E-03  1.95426584E-01  2.15025343E-02
  1.02608673E-01 -3.14448350E-01  1.18338061E-01  1.14903930E-01  9.66841473E-03
  8.91313186E-02 -3.84401225E-01 -6.78348040E-02  1.04357528E-01  1.30888364E-02
 -1.18412906E-01 -1.48561161E-01 -1.48560461E-01  2.21453532E-01  2.21451112E-01
 -2.11198631E-06  7.81075142E-06  1.10976094E-02 -4.94154142E-02  4.51138115E-01
  8.51867306E-07 -2.61131085E-06  8.82112611E-03 -3.91577849E-02  3.57576649E-01
  3.66835473E-06 -1.72255824E-05  1.33088303E-03 -6.10171503E-03  5.54593503E-02
 -1.88078999E-05 -2.36245792E-01  2.36250290E-01 -2.84658437E-01  2.84648085E-01
  3.53660981E-02 -1.37862072E-01  4.43960939E-02  3.16450573E-01  3.35785364E-02
 -3.79345904E-03  8.28854022E-03 -4.09508667E-01  2.50955179E-01  3.75835905E-02
 -4.43318160E-02  2.09931854E-01  2.83399375E-01  7.06741643E-02  7.39543252E-04
  4.20261705E-01 -1.05384855E-01 -1.05344924E-01  9.79749648E-02  9.80044900E-02
 -1.10752130E-02  4.43109953E-02 -3.60298410E-01 -2.66337870E-01 -2.03002004E-02
 -4.50667035E-03  2.39595706E-02  1.78466096E-01  4.55296324E-01  4.54436647E-02
 -2.25556229E-02  1.11154294E-01 -8.04637418E-02 -3.12152744E-01 -3.21534121E-02
  1.47053796E-01 -2.43566185E-01 -2.43583091E-01 -1.25786547E-01 -1.25799972E-01
 -1.24631306E-07  2.60183068E-07 -9.29739117E-03  4.12729490E-02 -3.77032167E-01
 -1.06141110E-06  4.05261489E-06  1.09589978E-02 -4.86513763E-02  4.44378075E-01
 -2.14847646E-06  1.08665810E-05 -1.30313066E-03  5.94418962E-03 -5.41055861E-02
 -1.48116060E-05 -3.59512567E-01  3.59511543E-01  2.93455524E-01 -2.93468634E-01
  2.22316666E-02 -1.19544077E-01 -3.75538422E-01  3.03459207E-01  4.24803848E-02
 -4.62869818E-03  1.68306223E-02  2.08168431E-01 -1.35652874E-01 -1.99841876E-02
 -6.68554621E-02  3.42383130E-01  4.89231218E-01 -3.59164563E-01 -5.13503388E-02
 -2.60994272E-01  9.08876428E-02  9.08717684E-02  1.38804369E-01  1.38817023E-01
 -3.16655398E-03  2.02559270E-02 -1.16269188E-01 -1.38099662E-01 -1.22289237E-02
 -3.06388346E-02  1.31597823E-01  2.44734060E-01  1.38502999E-01  9.13315416E-03
 -1.72458633E-03  1.03140931E-02  5.25145355E-01  7.50424521E-01  6.90828561E-02
 -8.19092536E-02 -4.61416611E-02 -4.61638983E-02 -1.39134467E-01 -1.39044359E-01
  1.82934801E-06 -7.32121224E-06  3.89845543E-03 -1.72371227E-02  1.57623395E-01
 -7.44497681E-06  3.89212419E-05 -2.09891553E-04  1.11481907E-03 -9.92376560E-03
 -4.24670345E-07  2.39047751E-06  2.33707853E-02 -1.03494718E-01  9.46563782E-01
 -1.62756782E-05  4.31888317E-03 -4.31962814E-03  2.79919251E-01 -2.79970031E-01
  3.38915175E-02 -1.10147412E-01 -5.30817019E-01  6.48066663E-01  8.40790009E-02
 -1.01223338E-02  5.82460297E-02 -2.44069251E-01  3.89173841E-01  4.86564767E-02
 -7.02688565E-02  4.18082887E-01 -5.91338800E-01  3.46181936E-01  5.24182501E-02
 -5.50334660E-01  2.41676424E-01  2.41601777E-01 -2.63974956E-01 -2.64063095E-01
 -2.61412968E-05  1.46094809E-04  1.74862492E-02 -7.87464251E-02  7.17486615E-01
  2.85627956E-05 -1.64434163E-04  1.70685551E-02 -7.68979537E-02  7.00748008E-01
  3.38574770E-06 -2.05909229E-05 -5.60739308E-03  2.51444001E-02 -2.29675317E-01
  5.23933161E-05  6.11617153E-01 -6.11682181E-01  6.03194281E-01 -6.03117747E-01
  1.12957942E-01 -6.60534509E-01  7.70345010E-01  5.27884164E-01  3.90111070E-02
 -8.79501063E-02  4.99460156E-01  8.61255206E-01  5.14703668E-01  3.53491213E-02
 -6.77194215E-04  3.32867949E-03 -9.96437689E-02 -1.07585037E-01 -9.40758207E-03
  1.02486305E-01  8.23642984E-02  8.20406721E-02 -9.28624447E-03 -9.56881146E-03
 -1.82931188E-01  1.11545603E+00  4.17320672E-01  3.69304279E-01  3.01433676E-02
 -8.30143296E-02  5.42822384E-01 -3.36649330E-01  5.81096991E-02  1.47251018E-02
  4.45961508E-02 -2.68373820E-01  3.14693346E-01 -3.20320334E-01 -4.28153488E-02
 -4.83027353E-01 -1.93798223E-01 -1.93915646E-01 -7.04342306E-01 -7.04316199E-01
  5.83021301E-02 -3.17298600E-01 -1.69676317E-01  3.08929427E-01  3.80512499E-02
 -1.68246091E-01  1.07532015E+00  1.37258813E-01 -7.51929812E-01 -8.57633059E-02
 -3.35239714E-02  2.06021081E-01 -2.58978426E-01  1.53099285E-01  2.31172174E-02
  6.70199302E-02 -8.33103007E-01 -8.33016931E-01  3.61971576E-02  3.61321441E-02
 -9.78428788E-02  6.36176212E-01 -2.40782547E-01  4.77177535E-01  5.81764569E-02
  1.42609063E-01 -9.11923925E-01  5.20101096E-01 -4.82355846E-01 -6.56460296E-02
 -1.07195744E-02  7.15106641E-02 -7.69876739E-02  3.98564256E-02  6.25838716E-03
  1.00792713E+00  1.58967657E-01  1.59018981E-01 -4.94947402E-01 -4.94945090E-01
  1.19974858E-05 -7.03750214E-05 -2.01902441E-02  8.95723295E-02 -8.17963134E-01
 -2.48936443E-06  1.55488555E-05  2.11717494E-02 -9.41155155E-02  8.59019980E-01
 -6.13283965E-06  3.80675496E-05  5.50386293E-03 -2.46011131E-02  2.25152305E-01
  4.82078111E-05  6.10890106E-01 -6.10967634E-01 -5.55770448E-01  5.55833335E-01
Total SCF Density                          R   N=         210
  2.06719417E+00 -2.22732762E-01  8.89373422E-01  6.60587201E-03 -1.34904690E-03
  6.07515579E-01 -2.32282257E-03 -3.40618222E-02  2.81342378E-02  6.26467464E-01
 -4.16463604E-04 -3.69852837E-03  4.57395412E-03 -5.26465485E-03  6.67546696E-01
  1.53601925E-02 -3.73713464E-02  7.37028126E-02  5.23956536E-02  3.92275290E-03
  2.06659507E+00 -3.82143750E-02  4.39194146E-02 -2.11086578E-01 -1.61679041E-01
 -1.25055979E-02 -2.09785207E-01  8.30079173E-01 -8.26627670E-02  2.43913911E-01
 -3.71757411E-01 -2.58262998E-01 -1.93758509E-02 -1.02068355E-03  2.36967333E-02
  6.39561246E-01 -4.76145034E-02  1.44678027E-01 -2.42546591E-01 -1.60389756E-01
 -1.04839836E-02 -1.30758345E-03  1.72720000E-02 -3.94822018E-03  6.53497611E-01
 -3.17878283E-03  9.83693606E-03 -1.76548639E-02 -1.00980622E-02 -1.07708001E-02
 -1.17991862E-04  1.30739271E-03  6.26826802E-05 -5.83430429E-04  6.59641172E-01
  2.66755904E-03  1.10277323E-02 -1.52977674E-02  1.30685047E-02  1.80770261E-03
 -1.63479102E-03  4.33968672E-03  9.59373957E-03 -5.05521446E-03 -7.89559791E-04
  2.11444957E+00  1.85136823E-02 -1.74293442E-01 -4.07523498E-02  1.32159242E-02
  2.44711679E-03  5.36172137E-03 -7.17786134E-03 -3.62408577E-02  2.67512517E-02
  3.82083937E-03 -4.86372945E-01  2.10524842E+00  9.28675840E-02 -3.14565914E-01
 -4.12499305E-01  3.51844308E-01  4.99920251E-02 -3.37037155E-02  1.45964159E-01
  1.76172875E-01  5.87503425E-02  1.68118122E-03 -6.73001231E-02  3.54725132E-01
  1.27867775E+00 -5.93703560E-02  2.08803031E-01  3.30682246E-01 -1.83001008E-01
 -3.40284498E-02 -2.20352330E-02  1.10720617E-01  7.17129959E-02  7.88157619E-02
  8.72154421E-03  4.49925729E-02 -2.36053952E-01  4.70388668E-01  1.65176142E+00
 -8.78468402E-03  3.05975757E-02  4.76647770E-02 -3.45419109E-02  4.84803508E-02
 -1.57912432E-03  8.51186312E-03  3.07991110E-03  9.02645800E-03 -1.60298475E-02
  6.58141539E-03 -3.45696840E-02  4.46196093E-02  5.93431893E-02  1.00816419E+00
  2.14961153E-02 -7.51328147E-02  9.34593876E-02  1.28109282E-02 -8.96867715E-04
 -9.39210086E-02  2.22361297E-01 -4.61230010E-01  3.74291421E-01  5.23308806E-02
 -6.55743511E-03  2.59480911E-02 -1.21558810E-01  1.07311356E-02  4.17257484E-03
  6.16573450E-01  1.74103743E-02 -7.38293414E-02  7.10959011E-02  6.42939970E-02
  6.12432497E-02 -9.39815286E-02  2.23111046E-01 -2.75212021E-02 -2.85198823E-01
 -5.24895378E-01  1.49708791E-03 -5.26314431E-03  2.83623107E-02 -2.61913099E-02
 -9.54689046E-04 -1.21205637E-01  6.14669512E-01  1.74104416E-02 -7.38297800E-02
  6.83773834E-02  7.63952209E-02 -4.92726276E-02 -9.39808939E-02  2.23107921E-01
 -3.49467553E-03 -3.92102586E-01  4.51504569E-01  1.49692655E-03 -5.26233588E-03
  2.82324758E-02 -2.56285242E-02 -6.10771129E-03 -1.21204699E-01 -1.24300583E-01
  6.14669963E-01 -9.45285206E-02  2.16836418E-01  8.50162443E-03  3.81718674E-01
 -4.48230324E-01  2.22943957E-02 -9.04036209E-02 -7.64920474E-02 -9.24669863E-02
  4.93441639E-02  9.72971562E-03 -3.79267510E-02  2.83537864E-02 -1.70145529E-01
  4.12146819E-02 -3.32015350E-02 -4.45871500E-02  1.13437826E-01  6.19343226E-01
 -9.45280932E-02  2.16833648E-01  3.23097553E-02  2.75788201E-01  5.19220698E-01
  2.22923015E-02 -9.03934403E-02 -7.92807507E-02 -8.00060089E-02 -6.43952559E-02
  9.73085425E-03 -3.79330625E-02  2.54446546E-02 -1.57014217E-01 -7.83270887E-02
 -3.32036948E-02  1.13436897E-01 -4.45895067E-02 -1.19444528E-01  6.19335325E-01
Spin SCF Density                           R   N=         210
 -1.77338203E-03  7.93268613E-03 -3.25323676E-02  5.54831465E-03 -2.43859725E-02