 Entering Gaussian System, Link 0=/home/programs/G09_64/g09/g09
 Initial command:
 /home/programs/G09_64/g09/l1.exe /scratch/Gau-25325.inp -scrdir=/scratch/
 Entering Link 1 = /home/programs/G09_64/g09/l1.exe PID=     25327.
  
 Copyright (c) 1988,1990,1992,1993,1995,1998,2003,2009,2010,
            Gaussian, Inc.  All Rights Reserved.
  
 This is part of the Gaussian(R) 09 program.  It is based on
 the Gaussian(R) 03 system (copyright 2003, Gaussian, Inc.),
 the Gaussian(R) 98 system (copyright 1998, Gaussian, Inc.),
 the Gaussian(R) 94 system (copyright 1995, Gaussian, Inc.),
 the Gaussian 92(TM) system (copyright 1992, Gaussian, Inc.),
 the Gaussian 90(TM) system (copyright 1990, Gaussian, Inc.),
 the Gaussian 88(TM) system (copyright 1988, Gaussian, Inc.),
 the Gaussian 86(TM) system (copyright 1986, Carnegie Mellon
 University), and the Gaussian 82(TM) system (copyright 1983,
 Carnegie Mellon University). Gaussian is a federally registered
 trademark of Gaussian, Inc.
  
 This software contains proprietary and confidential information,
 including trade secrets, belonging to Gaussian, Inc.
  
 This software is provided under written license and may be
 used, copied, transmitted, or stored only in accord with that
 written license.
  
 The following legend is applicable only to US Government
 contracts under FAR:
  
                    RESTRICTED RIGHTS LEGEND
  
 Use, reproduction and disclosure by the US Government is
 subject to restrictions as set forth in subparagraphs (a)
 and (c) of the Commercial Computer Software - Restricted
 Rights clause in FAR 52.227-19.
  
 Gaussian, Inc.
 340 Quinnipiac St., Bldg. 40, Wallingford CT 06492
  
  
 ---------------------------------------------------------------
 Warning -- This program may not be used in any manner that
 competes with the business of Gaussian, Inc. or will provide
 assistance to any competitor of Gaussian, Inc.  The licensee
 of this program is prohibited from giving any competitor of
 Gaussian, Inc. access to this program.  By using this program,
 the user acknowledges that Gaussian, Inc. is engaged in the
 business of creating and licensing software in the field of
 computational chemistry and represents and warrants to the
 licensee that it is not a competitor of Gaussian, Inc. and that
 it will not use this program in any manner prohibited above.
 ---------------------------------------------------------------
  

 Cite this work as:
 Gaussian 09, Revision B.01,
 M. J. Frisch, G. W. Trucks, H. B. Schlegel, G. E. Scuseria, 
 M. A. Robb, J. R. Cheeseman, G. Scalmani, V. Barone, B. Mennucci, 
 G. A. Petersson, H. Nakatsuji, M. Caricato, X. Li, H. P. Hratchian, 
 A. F. Izmaylov, J. Bloino, G. Zheng, J. L. Sonnenberg, M. Hada, 
 M. Ehara, K. Toyota, R. Fukuda, J. Hasegawa, M. Ishida, T. Nakajima, 
 Y. Honda, O. Kitao, H. Nakai, T. Vreven, J. A. Montgomery, Jr., 
 J. E. Peralta, F. Ogliaro, M. Bearpark, J. J. Heyd, E. Brothers, 
 K. N. Kudin, V. N. Staroverov, T. Keith, R. Kobayashi, J. Normand, 
 K. Raghavachari, A. Rendell, J. C. Burant, S. S. Iyengar, J. Tomasi, 
 M. Cossi, N. Rega, J. M. Millam, M. Klene, J. E. Knox, J. B. Cross, 
 V. Bakken, C. Adamo, J. Jaramillo, R. Gomperts, R. E. Stratmann, 
 O. Yazyev, A. J. Austin, R. Cammi, C. Pomelli, J. W. Ochterski, 
 R. L. Martin, K. Morokuma, V. G. Zakrzewski, G. A. Voth, 
 P. Salvador, J. J. Dannenberg, S. Dapprich, A. D. Daniels, 
 O. Farkas, J. B. Foresman, J. V. Ortiz, J. Cioslowski, 
 and D. J. Fox, Gaussian, Inc., Wallingford CT, 2010.
 
 ******************************************
 Gaussian 09:  AM64L-G09RevB.01 12-Aug-2010
                24-Jan-2019 
 ******************************************
 %mem=1GB
 %chk=kk.chk
 ----------------------------------------------------------------------
 #p hf/sto-3g scf=verytight opt=(ts,noeigentest,calcfc) NoSymm freq uni
 ts=au
 ----------------------------------------------------------------------
 1/5=1,10=4,11=1,18=20,20=1,38=1/1,3;
 2/9=110,12=2,15=1,17=6,18=5,40=1/2;
 3/6=3,11=9,16=1,25=1,30=1,71=2/1,2,3;
 4//1;
 5/5=2,17=3,38=5/2;
 8/6=4,10=90,11=11/1;
 11/6=1,8=1,9=11,15=111,16=1,31=1/1,2,10;
 10/6=1,7=6,13=1,31=1/2;
 6/7=2,8=2,9=2,10=2,28=1/1;
 7/10=1,18=20,25=1,30=1/1,2,3,16;
 1/5=1,10=4,11=1,18=20/3(2);
 2/9=110,15=1/2;
 99//99;
 2/9=110,15=1/2;
 3/6=3,11=9,16=1,25=1,30=1,71=1/1,2,3;
 4/5=5,16=3/1;
 5/5=2,17=3,38=5/2;
 7/30=1/1,2,3,16;
 1/5=1,11=1,18=20/3(-5);
 2/9=110,15=1/2;
 6/7=2,8=2,9=2,10=2,19=2,28=1/1;
 99/9=1/99;
 Leave Link    1 at Thu Jan 24 17:06:33 2019, MaxMem=  134217728 cpu:       0.0
 (Enter /home/programs/G09_64/g09/l101.exe)
 ---
 ---
 ---
 Symbolic Z-matrix:
 Charge =  0 Multiplicity = 2
 C                     2.40457   0.61813  -0.14798 
 C                     0.11732  -0.94812   0.52297 
 O                    -2.13504  -0.03272  -0.48683 
 H                     4.12206  -0.27132   0.544 
 H                     2.54953   0.84064  -2.18187 
 H                     2.26396   2.48506   0.69734 
 H                     0.26938  -2.8361   -0.30769 
 H                    -0.03942  -1.22341   2.56191 
 H                    -2.60701   2.03902   0.54245 
 H                    -2.70167   3.41455   1.40528 
 
 NAtoms=     10 NQM=     10 NQMF=      0 NMic=      0 NMicF=      0 NTot=     10.
                    Isotopes and Nuclear Properties:
 (Nuclear quadrupole moments (NQMom) in fm**2, nuclear magnetic moments (NMagM)
  in nuclear magnetons)

  Atom         1           2           3           4           5           6           7           8           9          10
 IAtWgt=          12          12          16           1           1           1           1           1           1           1
 AtmWgt=  12.0000000  12.0000000  15.9949146   1.0078250   1.0078250   1.0078250   1.0078250   1.0078250   1.0078250   1.0078250
 NucSpn=           0           0           0           1           1           1           1           1           1           1
 AtZEff=   0.0000000   0.0000000   0.0000000   0.0000000   0.0000000   0.0000000   0.0000000   0.0000000   0.0000000   0.0000000
 NQMom=    0.0000000   0.0000000   0.0000000   0.0000000   0.0000000   0.0000000   0.0000000   0.0000000   0.0000000   0.0000000
 NMagM=    0.0000000   0.0000000   0.0000000   2.7928460   2.7928460   2.7928460   2.7928460   2.7928460   2.7928460   2.7928460
 Leave Link  101 at Thu Jan 24 17:06:34 2019, MaxMem=  134217728 cpu:       0.1
 (Enter /home/programs/G09_64/g09/l103.exe)

 GradGradGradGradGradGradGradGradGradGradGradGradGradGradGradGradGradGrad
 Berny optimization.
 Initialization pass.
                           ----------------------------
                           !    Initial Parameters    !
                           ! (Angstroms and Degrees)  !
 --------------------------                            --------------------------
 ! Name  Definition              Value          Derivative Info.                !
 --------------------------------------------------------------------------------
 ! R1    R(1,2)                  1.5093         calculate D2E/DX2 analytically  !
 ! R2    R(1,4)                  1.087          calculate D2E/DX2 analytically  !
 ! R3    R(1,5)                  1.0854         calculate D2E/DX2 analytically  !
 ! R4    R(1,6)                  1.087          calculate D2E/DX2 analytically  !
 ! R5    R(2,3)                  1.3931         calculate D2E/DX2 analytically  !
 ! R6    R(2,7)                  1.0945         calculate D2E/DX2 analytically  !
 ! R7    R(2,8)                  1.0919         calculate D2E/DX2 analytically  !
 ! R8    R(3,9)                  1.2494         calculate D2E/DX2 analytically  !
 ! R9    R(9,10)                 0.8607         calculate D2E/DX2 analytically  !
 ! A1    A(2,1,4)              110.6998         calculate D2E/DX2 analytically  !
 ! A2    A(2,1,5)              110.4572         calculate D2E/DX2 analytically  !
 ! A3    A(2,1,6)              110.3274         calculate D2E/DX2 analytically  !
 ! A4    A(4,1,5)              108.7783         calculate D2E/DX2 analytically  !
 ! A5    A(4,1,6)              108.1877         calculate D2E/DX2 analytically  !
 ! A6    A(5,1,6)              108.3178         calculate D2E/DX2 analytically  !
 ! A7    A(1,2,3)              113.8864         calculate D2E/DX2 analytically  !
 ! A8    A(1,2,7)              110.3557         calculate D2E/DX2 analytically  !
 ! A9    A(1,2,8)              111.5083         calculate D2E/DX2 analytically  !
 ! A10   A(3,2,7)              103.0767         calculate D2E/DX2 analytically  !
 ! A11   A(3,2,8)              111.1261         calculate D2E/DX2 analytically  !
 ! A12   A(7,2,8)              106.2997         calculate D2E/DX2 analytically  !
 ! A13   A(2,3,9)              107.994          calculate D2E/DX2 analytically  !
 ! A14   A(3,9,10)             170.0596         calculate D2E/DX2 analytically  !
 ! D1    D(4,1,2,3)           -174.9115         calculate D2E/DX2 analytically  !
 ! D2    D(4,1,2,7)            -59.5558         calculate D2E/DX2 analytically  !
 ! D3    D(4,1,2,8)             58.347          calculate D2E/DX2 analytically  !
 ! D4    D(5,1,2,3)            -54.3649         calculate D2E/DX2 analytically  !
 ! D5    D(5,1,2,7)             60.9909         calculate D2E/DX2 analytically  !
 ! D6    D(5,1,2,8)            178.8936         calculate D2E/DX2 analytically  !
 ! D7    D(6,1,2,3)             65.3651         calculate D2E/DX2 analytically  !
 ! D8    D(6,1,2,7)           -179.2791         calculate D2E/DX2 analytically  !
 ! D9    D(6,1,2,8)            -61.3764         calculate D2E/DX2 analytically  !
 ! D10   D(1,2,3,9)            -66.6917         calculate D2E/DX2 analytically  !
 ! D11   D(7,2,3,9)            173.7424         calculate D2E/DX2 analytically  !
 ! D12   D(8,2,3,9)             60.2489         calculate D2E/DX2 analytically  !
 ! D13   D(2,3,9,10)            -3.3234         calculate D2E/DX2 analytically  !
 --------------------------------------------------------------------------------
 Trust Radius=3.00D-01 FncErr=1.00D-07 GrdErr=1.00D-07
 Number of steps in this run=     46 maximum allowed number of steps=    100.
 Search for a saddle point of order  1.
 GradGradGradGradGradGradGradGradGradGradGradGradGradGradGradGradGradGrad

 Leave Link  103 at Thu Jan 24 17:06:34 2019, MaxMem=  134217728 cpu:       0.0
 (Enter /home/programs/G09_64/g09/l202.exe)
                          Input orientation:                          
 ---------------------------------------------------------------------
 Center     Atomic      Atomic             Coordinates (Angstroms)
 Number     Number       Type             X           Y           Z
 ---------------------------------------------------------------------
      1          6           0        1.272445    0.327100   -0.078306
      2          6           0        0.062085   -0.501722    0.276744
      3          8           0       -1.129813   -0.017317   -0.257621
      4          1           0        2.181300   -0.143577    0.287870
      5          1           0        1.349154    0.444849   -1.154597
      6          1           0        1.198036    1.315034    0.369015
      7          1           0        0.142551   -1.500798   -0.162820
      8          1           0       -0.020862   -0.647399    1.355706
      9          1           0       -1.379568    1.079004    0.287053
     10          1           0       -1.429664    1.806900    0.743640
 ---------------------------------------------------------------------
                    Distance matrix (angstroms):
                    1          2          3          4          5
     1  C    0.000000
     2  C    1.509297   0.000000
     3  O    2.433438   1.393132   0.000000
     4  H    1.087032   2.149294   3.358120   0.000000
     5  H    1.085428   2.145059   2.676461   1.766189   0.000000
     6  H    1.087036   2.144645   2.754399   1.760949   1.761095
     7  H    2.150585   1.094461   1.956684   2.490315   2.495006
     8  H    2.163026   1.091908   2.056600   2.498725   3.061303
     9  H    2.780650   2.139431   1.249387   3.764901   3.150624
    10  H    3.188541   2.788018   2.102428   4.129304   3.630471
                    6          7          8          9         10
     6  H    0.000000
     7  H    3.053819   0.000000
     8  H    2.512054   1.749548   0.000000
     9  H    2.589685   3.028962   2.443065   0.000000
    10  H    2.699460   3.772850   2.895329   0.860705   0.000000
 Symmetry turned off by external request.
 Stoichiometry    C2H7O(2)
 Framework group  C1[X(C2H7O)]
 Deg. of freedom    24
 Full point group                 C1      NOp   1
 Rotational constants (GHZ):     26.1182139      8.6957098      7.7037852
 Leave Link  202 at Thu Jan 24 17:06:34 2019, MaxMem=  134217728 cpu:       0.0
 (Enter /home/programs/G09_64/g09/l301.exe)
 Standard basis: STO-3G (5D, 7F)
 Ernie: Thresh=  0.10000D-02 Tol=  0.10000D-05 Strict=F.
 Integral buffers will be    131072 words long.
 Raffenetti 2 integral format.
 Two-electron integral symmetry is turned off.
    22 basis functions,    66 primitive gaussians,    22 cartesian basis functions
    14 alpha electrons       13 beta electrons
       nuclear repulsion energy        86.7227071946 Hartrees.
 IExCor=    0 DFT=F Ex=HF Corr=None ExCW=0 ScaHFX=  1.000000
 ScaDFX=  1.000000  1.000000  1.000000  1.000000 ScalE2=  1.000000  1.000000
 IRadAn=      0 IRanWt=     -1 IRanGd=            0 ICorTp=0
 NAtoms=   10 NActive=   10 NUniq=   10 SFac= 1.00D+00 NAtFMM=   50 NAOKFM=F Big=F
 Leave Link  301 at Thu Jan 24 17:06:34 2019, MaxMem=  134217728 cpu:       0.1
 (Enter /home/programs/G09_64/g09/l302.exe)
 NPDir=0 NMtPBC=     1 NCelOv=     1 NCel=       1 NClECP=     1 NCelD=      1
         NCelK=      1 NCelE2=     1 NClLst=     1 CellRange=     0.0.
 One-electron integrals computed using PRISM.
 NBasis=    22 RedAO= T  NBF=    22
 NBsUse=    22 1.00D-06 NBFU=    22
 Leave Link  302 at Thu Jan 24 17:06:34 2019, MaxMem=  134217728 cpu:       0.1
 (Enter /home/programs/G09_64/g09/l303.exe)
 DipDrv:  MaxL=1.
 Leave Link  303 at Thu Jan 24 17:06:34 2019, MaxMem=  134217728 cpu:       0.0
 (Enter /home/programs/G09_64/g09/l401.exe)
 Harris functional with IExCor=  205 diagonalized for initial guess.
 ExpMin= 1.69D-01 ExpMax= 1.31D+02 ExpMxC= 1.31D+02 IAcc=1 IRadAn=         1 AccDes= 0.00D+00
 HarFok:  IExCor=  205 AccDes= 0.00D+00 IRadAn=         1 IDoV= 1
 ScaDFX=  1.000000  1.000000  1.000000  1.000000
 FoFCou: FMM=F IPFlag=           0 FMFlag=      100000 FMFlg1=           0
         NFxFlg=           0 DoJE=T BraDBF=F KetDBF=T FulRan=T
         Omega=  0.000000  0.000000  1.000000  0.000000  0.000000 ICntrl=     500 IOpCl=  0
         NMat0=    1 NMatS0=    1 NMatT0=    0 NMatD0=    1 NMtDS0=    0 NMtDT0=    0
         I1Cent=           4 NGrid=           0.
 Symmetry not used in FoFCou.
 Harris En= -152.802679948270    
 Initial guess <Sx>= 0.0000 <Sy>= 0.0000 <Sz>= 0.5000 <S**2>= 0.7500 S= 0.5000
 Leave Link  401 at Thu Jan 24 17:06:34 2019, MaxMem=  134217728 cpu:       0.3
 (Enter /home/programs/G09_64/g09/l502.exe)
 UHF open shell SCF:
 Requested convergence on RMS density matrix=1.00D-08 within 128 cycles.
 Requested convergence on MAX density matrix=1.00D-06.
 Requested convergence on             energy=1.00D-06.
 No special actions if energy rises.
 Using DIIS extrapolation, IDIIS=  1040.
 Two-electron integral symmetry not used.
 Keep R1 and R2 ints in memory in canonical form, NReq=884165.
 IEnd=       19882 IEndB=       19882 NGot=   134217728 MDV=   134150703
 LenX=   134150703 LenY=   134149778
 Symmetry not used in FoFDir.
 MinBra= 0 MaxBra= 1 Meth= 1.
 IRaf=       0 NMat=   1 IRICut=       1 DoRegI=T DoRafI=F ISym2E= 0 JSym2E=0.

 Cycle   1  Pass 1  IDiag  1:
 E= -152.504857363287    
 DIIS: error= 4.16D-02 at cycle   1 NSaved=   1.
 NSaved= 1 IEnMin= 1 EnMin= -152.504857363287     IErMin= 1 ErrMin= 4.16D-02
 ErrMax= 4.16D-02 EMaxC= 1.00D-01 BMatC= 2.90D-01 BMatP= 2.90D-01
 IDIUse=3 WtCom= 5.84D-01 WtEn= 4.16D-01
 Coeff-Com:  0.100D+01
 Coeff-En:   0.100D+01
 Coeff:      0.100D+01
 Gap=     0.980 Goal=   None    Shift=    0.000
 Gap=     0.486 Goal=   None    Shift=    0.000
 GapD=    0.486 DampG=2.000 DampE=0.500 DampFc=1.0000 IDamp=-1.
 RMSDP=1.67D-02 MaxDP=1.03D-01              OVMax= 0.00D+00

 Cycle   2  Pass 1  IDiag  1:
 E= -152.595446769159     Delta-E=       -0.090589405872 Rises=F Damp=F
 DIIS: error= 1.24D-02 at cycle   2 NSaved=   2.
 NSaved= 2 IEnMin= 2 EnMin= -152.595446769159     IErMin= 2 ErrMin= 1.24D-02
 ErrMax= 1.24D-02 EMaxC= 1.00D-01 BMatC= 1.62D-02 BMatP= 2.90D-01
 IDIUse=3 WtCom= 8.76D-01 WtEn= 1.24D-01
 Coeff-Com:  0.521D-01 0.948D+00
 Coeff-En:   0.000D+00 0.100D+01
 Coeff:      0.456D-01 0.954D+00
 Gap=     0.961 Goal=   None    Shift=    0.000
 Gap=     0.575 Goal=   None    Shift=    0.000
 RMSDP=4.35D-03 MaxDP=3.63D-02 DE=-9.06D-02 OVMax= 0.00D+00

 Cycle   3  Pass 1  IDiag  1:
 E= -152.603400668056     Delta-E=       -0.007953898897 Rises=F Damp=F
 DIIS: error= 7.36D-03 at cycle   3 NSaved=   3.
 NSaved= 3 IEnMin= 3 EnMin= -152.603400668056     IErMin= 3 ErrMin= 7.36D-03
 ErrMax= 7.36D-03 EMaxC= 1.00D-01 BMatC= 2.79D-03 BMatP= 1.62D-02
 IDIUse=3 WtCom= 9.26D-01 WtEn= 7.36D-02
 Coeff-Com: -0.469D-01-0.273D+00 0.132D+01
 Coeff-En:   0.000D+00 0.000D+00 0.100D+01
 Coeff:     -0.434D-01-0.253D+00 0.130D+01
 Gap=     0.948 Goal=   None    Shift=    0.000
 Gap=     0.600 Goal=   None    Shift=    0.000
 RMSDP=2.55D-03 MaxDP=2.29D-02 DE=-7.95D-03 OVMax= 0.00D+00

 Cycle   4  Pass 1  IDiag  1:
 E= -152.605602806187     Delta-E=       -0.002202138130 Rises=F Damp=F
 DIIS: error= 2.64D-03 at cycle   4 NSaved=   4.
 NSaved= 4 IEnMin= 4 EnMin= -152.605602806187     IErMin= 4 ErrMin= 2.64D-03
 ErrMax= 2.64D-03 EMaxC= 1.00D-01 BMatC= 3.22D-04 BMatP= 2.79D-03
 IDIUse=3 WtCom= 9.74D-01 WtEn= 2.64D-02
 Coeff-Com:  0.778D-02-0.352D-01-0.327D+00 0.135D+01
 Coeff-En:   0.000D+00 0.000D+00 0.000D+00 0.100D+01
 Coeff:      0.758D-02-0.343D-01-0.318D+00 0.135D+01
 Gap=     0.947 Goal=   None    Shift=    0.000
 Gap=     0.608 Goal=   None    Shift=    0.000
 RMSDP=1.15D-03 MaxDP=7.69D-03 DE=-2.20D-03 OVMax= 0.00D+00

 Cycle   5  Pass 1  IDiag  1:
 E= -152.605949787113     Delta-E=       -0.000346980927 Rises=F Damp=F
 DIIS: error= 1.08D-03 at cycle   5 NSaved=   5.
 NSaved= 5 IEnMin= 5 EnMin= -152.605949787113     IErMin= 5 ErrMin= 1.08D-03
 ErrMax= 1.08D-03 EMaxC= 1.00D-01 BMatC= 5.43D-05 BMatP= 3.22D-04
 IDIUse=3 WtCom= 9.89D-01 WtEn= 1.08D-02
 Coeff-Com:  0.138D-03 0.276D-01 0.577D-01-0.509D+00 0.142D+01
 Coeff-En:   0.000D+00 0.000D+00 0.000D+00 0.000D+00 0.100D+01
 Coeff:      0.137D-03 0.273D-01 0.570D-01-0.504D+00 0.142D+01
 Gap=     0.946 Goal=   None    Shift=    0.000
 Gap=     0.610 Goal=   None    Shift=    0.000
 RMSDP=5.02D-04 MaxDP=3.75D-03 DE=-3.47D-04 OVMax= 0.00D+00

 Cycle   6  Pass 1  IDiag  1:
 E= -152.606023501973     Delta-E=       -0.000073714859 Rises=F Damp=F
 DIIS: error= 6.91D-04 at cycle   6 NSaved=   6.
 NSaved= 6 IEnMin= 6 EnMin= -152.606023501973     IErMin= 6 ErrMin= 6.91D-04
 ErrMax= 6.91D-04 EMaxC= 1.00D-01 BMatC= 2.21D-05 BMatP= 5.43D-05
 IDIUse=3 WtCom= 9.93D-01 WtEn= 6.91D-03
 Coeff-Com: -0.111D-02-0.119D-01 0.586D-01-0.335D-02-0.143D+01 0.239D+01
 Coeff-En:   0.000D+00 0.000D+00 0.000D+00 0.000D+00 0.000D+00 0.100D+01
 Coeff:     -0.111D-02-0.118D-01 0.582D-01-0.333D-02-0.142D+01 0.238D+01
 Gap=     0.945 Goal=   None    Shift=    0.000
 Gap=     0.611 Goal=   None    Shift=    0.000
 RMSDP=6.79D-04 MaxDP=5.54D-03 DE=-7.37D-05 OVMax= 0.00D+00

 Cycle   7  Pass 1  IDiag  1:
 E= -152.606074232410     Delta-E=       -0.000050730437 Rises=F Damp=F
 DIIS: error= 2.48D-04 at cycle   7 NSaved=   7.
 NSaved= 7 IEnMin= 7 EnMin= -152.606074232410     IErMin= 7 ErrMin= 2.48D-04
 ErrMax= 2.48D-04 EMaxC= 1.00D-01 BMatC= 3.00D-06 BMatP= 2.21D-05
 IDIUse=3 WtCom= 9.98D-01 WtEn= 2.48D-03
 Coeff-Com:  0.699D-03 0.884D-03-0.441D-01 0.104D+00 0.516D+00-0.126D+01
 Coeff-Com:  0.169D+01
 Coeff-En:   0.000D+00 0.000D+00 0.000D+00 0.000D+00 0.000D+00 0.000D+00
 Coeff-En:   0.100D+01
 Coeff:      0.697D-03 0.881D-03-0.440D-01 0.104D+00 0.514D+00-0.126D+01
 Coeff:      0.168D+01
 Gap=     0.944 Goal=   None    Shift=    0.000
 Gap=     0.612 Goal=   None    Shift=    0.000
 RMSDP=2.15D-04 MaxDP=2.13D-03 DE=-5.07D-05 OVMax= 0.00D+00

 Cycle   8  Pass 1  IDiag  1:
 E= -152.606081462810     Delta-E=       -0.000007230400 Rises=F Damp=F
 DIIS: error= 2.35D-04 at cycle   8 NSaved=   8.
 NSaved= 8 IEnMin= 8 EnMin= -152.606081462810     IErMin= 8 ErrMin= 2.35D-04
 ErrMax= 2.35D-04 EMaxC= 1.00D-01 BMatC= 1.47D-06 BMatP= 3.00D-06
 IDIUse=3 WtCom= 9.98D-01 WtEn= 2.35D-03
 Coeff-Com: -0.506D-03 0.408D-03 0.352D-01-0.941D-01-0.326D+00 0.897D+00
 Coeff-Com: -0.145D+01 0.194D+01
 Coeff-En:   0.000D+00 0.000D+00 0.000D+00 0.000D+00 0.000D+00 0.000D+00
 Coeff-En:   0.000D+00 0.100D+01
 Coeff:     -0.505D-03 0.407D-03 0.352D-01-0.939D-01-0.325D+00 0.895D+00
 Coeff:     -0.145D+01 0.194D+01
 Gap=     0.944 Goal=   None    Shift=    0.000
 Gap=     0.612 Goal=   None    Shift=    0.000
 RMSDP=1.26D-04 MaxDP=1.87D-03 DE=-7.23D-06 OVMax= 0.00D+00

 Cycle   9  Pass 1  IDiag  1:
 E= -152.606085497219     Delta-E=       -0.000004034409 Rises=F Damp=F
 DIIS: error= 2.17D-04 at cycle   9 NSaved=   9.
 NSaved= 9 IEnMin= 9 EnMin= -152.606085497219     IErMin= 9 ErrMin= 2.17D-04
 ErrMax= 2.17D-04 EMaxC= 1.00D-01 BMatC= 1.17D-06 BMatP= 1.47D-06
 IDIUse=3 WtCom= 9.98D-01 WtEn= 2.17D-03
 Coeff-Com: -0.146D-03-0.129D-02 0.817D-02-0.124D-01-0.175D+00 0.331D+00
 Coeff-Com: -0.230D+00-0.144D+01 0.251D+01
 Coeff-En:   0.000D+00 0.000D+00 0.000D+00 0.000D+00 0.000D+00 0.000D+00
 Coeff-En:   0.000D+00 0.000D+00 0.100D+01
 Coeff:     -0.146D-03-0.129D-02 0.815D-02-0.124D-01-0.175D+00 0.331D+00
 Coeff:     -0.229D+00-0.143D+01 0.251D+01
 Gap=     0.944 Goal=   None    Shift=    0.000
 Gap=     0.612 Goal=   None    Shift=    0.000
 RMSDP=2.32D-04 MaxDP=3.58D-03 DE=-4.03D-06 OVMax= 0.00D+00

 Cycle  10  Pass 1  IDiag  1:
 E= -152.606091902287     Delta-E=       -0.000006405068 Rises=F Damp=F
 DIIS: error= 1.82D-04 at cycle  10 NSaved=  10.
 NSaved=10 IEnMin=10 EnMin= -152.606091902287     IErMin=10 ErrMin= 1.82D-04
 ErrMax= 1.82D-04 EMaxC= 1.00D-01 BMatC= 8.27D-07 BMatP= 1.17D-06
 IDIUse=3 WtCom= 9.98D-01 WtEn= 1.82D-03
 Coeff-Com:  0.970D-03 0.156D-02-0.650D-01 0.157D+00 0.814D+00-0.197D+01
 Coeff-Com:  0.272D+01-0.461D+00-0.441D+01 0.422D+01
 Coeff-En:   0.000D+00 0.000D+00 0.000D+00 0.000D+00 0.000D+00 0.000D+00
 Coeff-En:   0.000D+00 0.000D+00 0.000D+00 0.100D+01
 Coeff:      0.968D-03 0.156D-02-0.649D-01 0.157D+00 0.812D+00-0.197D+01
 Coeff:      0.271D+01-0.460D+00-0.441D+01 0.421D+01
 Gap=     0.944 Goal=   None    Shift=    0.000
 Gap=     0.612 Goal=   None    Shift=    0.000
 RMSDP=5.10D-04 MaxDP=8.12D-03 DE=-6.41D-06 OVMax= 0.00D+00

 Cycle  11  Pass 1  IDiag  1:
 E= -152.606101830420     Delta-E=       -0.000009928133 Rises=F Damp=F
 DIIS: error= 1.00D-04 at cycle  11 NSaved=  11.
 NSaved=11 IEnMin=11 EnMin= -152.606101830420     IErMin=11 ErrMin= 1.00D-04
 ErrMax= 1.00D-04 EMaxC= 1.00D-01 BMatC= 3.09D-07 BMatP= 8.27D-07
 IDIUse=3 WtCom= 9.99D-01 WtEn= 1.00D-03
 Coeff-Com: -0.110D-02-0.242D-03 0.731D-01-0.185D+00-0.783D+00 0.202D+01
 Coeff-Com: -0.295D+01 0.170D+01 0.315D+01-0.507D+01 0.306D+01
 Coeff-En:   0.000D+00 0.000D+00 0.000D+00 0.000D+00 0.000D+00 0.000D+00
 Coeff-En:   0.000D+00 0.000D+00 0.000D+00 0.000D+00 0.100D+01
 Coeff:     -0.110D-02-0.242D-03 0.730D-01-0.185D+00-0.782D+00 0.201D+01
 Coeff:     -0.295D+01 0.170D+01 0.314D+01-0.507D+01 0.306D+01
 Gap=     0.944 Goal=   None    Shift=    0.000
 Gap=     0.612 Goal=   None    Shift=    0.000
 RMSDP=4.99D-04 MaxDP=8.08D-03 DE=-9.93D-06 OVMax= 0.00D+00

 Cycle  12  Pass 1  IDiag  1:
 E= -152.606105988273     Delta-E=       -0.000004157853 Rises=F Damp=F
 DIIS: error= 1.84D-05 at cycle  12 NSaved=  12.
 NSaved=12 IEnMin=12 EnMin= -152.606105988273     IErMin=12 ErrMin= 1.84D-05
 ErrMax= 1.84D-05 EMaxC= 1.00D-01 BMatC= 2.83D-08 BMatP= 3.09D-07
 IDIUse=1 WtCom= 1.00D+00 WtEn= 0.00D+00
 Coeff-Com:  0.390D-03-0.272D-03-0.245D-01 0.626D-01 0.214D+00-0.599D+00
 Coeff-Com:  0.940D+00-0.782D+00-0.769D+00 0.183D+01-0.155D+01 0.167D+01
 Coeff:      0.390D-03-0.272D-03-0.245D-01 0.626D-01 0.214D+00-0.599D+00
 Coeff:      0.940D+00-0.782D+00-0.769D+00 0.183D+01-0.155D+01 0.167D+01
 Gap=     0.944 Goal=   None    Shift=    0.000
 Gap=     0.612 Goal=   None    Shift=    0.000
 RMSDP=9.38D-05 MaxDP=1.48D-03 DE=-4.16D-06 OVMax= 0.00D+00

 Cycle  13  Pass 1  IDiag  1:
 E= -152.606106138920     Delta-E=       -0.000000150647 Rises=F Damp=F
 DIIS: error= 6.92D-06 at cycle  13 NSaved=  13.
 NSaved=13 IEnMin=13 EnMin= -152.606106138920     IErMin=13 ErrMin= 6.92D-06
 ErrMax= 6.92D-06 EMaxC= 1.00D-01 BMatC= 3.39D-09 BMatP= 2.83D-08
 IDIUse=1 WtCom= 1.00D+00 WtEn= 0.00D+00
 Coeff-Com: -0.639D-04 0.337D-03 0.287D-02-0.890D-02 0.133D-01 0.811D-02
 Coeff-Com: -0.567D-01 0.134D+00 0.621D-02-0.263D+00 0.345D+00-0.760D+00
 Coeff-Com:  0.158D+01
 Coeff:     -0.639D-04 0.337D-03 0.287D-02-0.890D-02 0.133D-01 0.811D-02
 Coeff:     -0.567D-01 0.134D+00 0.621D-02-0.263D+00 0.345D+00-0.760D+00
 Coeff:      0.158D+01
 Gap=     0.944 Goal=   None    Shift=    0.000
 Gap=     0.612 Goal=   None    Shift=    0.000
 RMSDP=1.51D-05 MaxDP=2.47D-04 DE=-1.51D-07 OVMax= 0.00D+00

 Cycle  14  Pass 1  IDiag  1:
 E= -152.606106145402     Delta-E=       -0.000000006482 Rises=F Damp=F
 DIIS: error= 1.81D-06 at cycle  14 NSaved=  14.
 NSaved=14 IEnMin=14 EnMin= -152.606106145402     IErMin=14 ErrMin= 1.81D-06
 ErrMax= 1.81D-06 EMaxC= 1.00D-01 BMatC= 3.96D-10 BMatP= 3.39D-09
 IDIUse=1 WtCom= 1.00D+00 WtEn= 0.00D+00
 Coeff-Com:  0.489D-04-0.241D-03-0.242D-02 0.705D-02-0.545D-02-0.152D-01
 Coeff-Com:  0.517D-01-0.850D-01-0.361D-01 0.193D+00-0.213D+00 0.453D+00
 Coeff-Com: -0.117D+01 0.183D+01
 Coeff:      0.489D-04-0.241D-03-0.242D-02 0.705D-02-0.545D-02-0.152D-01
 Coeff:      0.517D-01-0.850D-01-0.361D-01 0.193D+00-0.213D+00 0.453D+00
 Coeff:     -0.117D+01 0.183D+01
 Gap=     0.944 Goal=   None    Shift=    0.000
 Gap=     0.612 Goal=   None    Shift=    0.000
 RMSDP=2.15D-06 MaxDP=2.13D-05 DE=-6.48D-09 OVMax= 0.00D+00

 Cycle  15  Pass 1  IDiag  1:
 E= -152.606106145839     Delta-E=       -0.000000000437 Rises=F Damp=F
 DIIS: error= 9.00D-07 at cycle  15 NSaved=  15.
 NSaved=15 IEnMin=15 EnMin= -152.606106145839     IErMin=15 ErrMin= 9.00D-07
 ErrMax= 9.00D-07 EMaxC= 1.00D-01 BMatC= 5.64D-11 BMatP= 3.96D-10
 IDIUse=1 WtCom= 1.00D+00 WtEn= 0.00D+00
 Coeff-Com: -0.614D-05 0.765D-04 0.204D-03-0.628D-03 0.807D-02-0.119D-01
 Coeff-Com:  0.896D-02 0.166D-02 0.105D-02-0.180D-01 0.215D-01-0.812D-01
 Coeff-Com:  0.335D+00-0.906D+00 0.164D+01
 Coeff:     -0.614D-05 0.765D-04 0.204D-03-0.628D-03 0.807D-02-0.119D-01
 Coeff:      0.896D-02 0.166D-02 0.105D-02-0.180D-01 0.215D-01-0.812D-01
 Coeff:      0.335D+00-0.906D+00 0.164D+01
 Gap=     0.944 Goal=   None    Shift=    0.000
 Gap=     0.612 Goal=   None    Shift=    0.000
 RMSDP=8.33D-07 MaxDP=7.46D-06 DE=-4.37D-10 OVMax= 0.00D+00

 Cycle  16  Pass 1  IDiag  1:
 E= -152.606106145905     Delta-E=       -0.000000000067 Rises=F Damp=F
 DIIS: error= 2.32D-07 at cycle  16 NSaved=  16.
 NSaved=16 IEnMin=16 EnMin= -152.606106145905     IErMin=16 ErrMin= 2.32D-07
 ErrMax= 2.32D-07 EMaxC= 1.00D-01 BMatC= 4.33D-12 BMatP= 5.64D-11
 IDIUse=1 WtCom= 1.00D+00 WtEn= 0.00D+00
 Coeff-Com:  0.412D-06-0.161D-04-0.180D-04-0.233D-04-0.229D-02 0.404D-02
 Coeff-Com: -0.420D-02 0.338D-02-0.229D-02 0.892D-03 0.185D-02 0.594D-02
 Coeff-Com: -0.595D-01 0.231D+00-0.685D+00 0.151D+01
 Coeff:      0.412D-06-0.161D-04-0.180D-04-0.233D-04-0.229D-02 0.404D-02
 Coeff:     -0.420D-02 0.338D-02-0.229D-02 0.892D-03 0.185D-02 0.594D-02
 Coeff:     -0.595D-01 0.231D+00-0.685D+00 0.151D+01
 Gap=     0.944 Goal=   None    Shift=    0.000
 Gap=     0.612 Goal=   None    Shift=    0.000
 RMSDP=1.81D-07 MaxDP=1.06D-06 DE=-6.65D-11 OVMax= 0.00D+00

 Cycle  17  Pass 1  IDiag  1:
 E= -152.606106145909     Delta-E=       -0.000000000004 Rises=F Damp=F
 DIIS: error= 5.84D-08 at cycle  17 NSaved=  17.
 NSaved=17 IEnMin=17 EnMin= -152.606106145909     IErMin=17 ErrMin= 5.84D-08
 ErrMax= 5.84D-08 EMaxC= 1.00D-01 BMatC= 4.13D-13 BMatP= 4.33D-12
 IDIUse=1 WtCom= 1.00D+00 WtEn= 0.00D+00
 Coeff-Com:  0.766D-06 0.446D-06-0.314D-04 0.140D-03 0.596D-03-0.153D-02
 Coeff-Com:  0.224D-02-0.275D-02 0.551D-03 0.283D-02-0.429D-02 0.589D-02
 Coeff-Com: -0.342D-02-0.248D-01 0.171D+00-0.707D+00 0.156D+01
 Coeff:      0.766D-06 0.446D-06-0.314D-04 0.140D-03 0.596D-03-0.153D-02
 Coeff:      0.224D-02-0.275D-02 0.551D-03 0.283D-02-0.429D-02 0.589D-02
 Coeff:     -0.342D-02-0.248D-01 0.171D+00-0.707D+00 0.156D+01
 Gap=     0.944 Goal=   None    Shift=    0.000
 Gap=     0.612 Goal=   None    Shift=    0.000
 RMSDP=5.03D-08 MaxDP=3.58D-07 DE=-4.32D-12 OVMax= 0.00D+00

 Cycle  18  Pass 1  IDiag  1:
 E= -152.606106145910     Delta-E=        0.000000000000 Rises=F Damp=F
 DIIS: error= 1.86D-08 at cycle  18 NSaved=  18.
 NSaved=18 IEnMin=18 EnMin= -152.606106145910     IErMin=18 ErrMin= 1.86D-08
 ErrMax= 1.86D-08 EMaxC= 1.00D-01 BMatC= 5.46D-14 BMatP= 4.13D-13
 IDIUse=1 WtCom= 1.00D+00 WtEn= 0.00D+00
 Coeff-Com: -0.203D-06 0.111D-05-0.731D-06-0.356D-04 0.437D-04 0.455D-04
 Coeff-Com: -0.187D-03 0.775D-03-0.873D-03-0.287D-03 0.121D-02-0.245D-02
 Coeff-Com:  0.545D-02-0.869D-02-0.310D-01 0.304D+00-0.109D+01 0.182D+01
 Coeff:     -0.203D-06 0.111D-05-0.731D-06-0.356D-04 0.437D-04 0.455D-04
 Coeff:     -0.187D-03 0.775D-03-0.873D-03-0.287D-03 0.121D-02-0.245D-02
 Coeff:      0.545D-02-0.869D-02-0.310D-01 0.304D+00-0.109D+01 0.182D+01
 Gap=     0.944 Goal=   None    Shift=    0.000
 Gap=     0.612 Goal=   None    Shift=    0.000
 RMSDP=2.00D-08 MaxDP=1.48D-07 DE=-1.71D-13 OVMax= 0.00D+00

 Cycle  19  Pass 1  IDiag  1:
 E= -152.606106145910     Delta-E=        0.000000000000 Rises=F Damp=F
 DIIS: error= 7.01D-09 at cycle  19 NSaved=  19.
 NSaved=19 IEnMin=18 EnMin= -152.606106145910     IErMin=19 ErrMin= 7.01D-09
 ErrMax= 7.01D-09 EMaxC= 1.00D-01 BMatC= 4.11D-15 BMatP= 5.46D-14
 IDIUse=1 WtCom= 1.00D+00 WtEn= 0.00D+00
 Large coefficients: NSaved= 19 BigCof=    0.00 CofMax=   10.00 Det=-2.55D-15
 Inversion failed.  Reducing to 18 matrices.
 Large coefficients: NSaved= 18 BigCof=    0.00 CofMax=   10.00 Det=-2.70D-15
 Inversion failed.  Reducing to 17 matrices.
 Large coefficients: NSaved= 17 BigCof=    0.00 CofMax=   10.00 Det=-2.76D-15
 Inversion failed.  Reducing to 16 matrices.
 Large coefficients: NSaved= 16 BigCof=    0.00 CofMax=   10.00 Det=-4.41D-15
 Inversion failed.  Reducing to 15 matrices.
 Coeff-Com: -0.141D-04 0.237D-04-0.332D-04 0.101D-03-0.106D-03-0.329D-04
 Coeff-Com:  0.190D-03-0.452D-03 0.220D-03 0.357D-02-0.140D-01 0.257D-01
 Coeff-Com:  0.319D-01-0.412D+00 0.136D+01
 Coeff:     -0.141D-04 0.237D-04-0.332D-04 0.101D-03-0.106D-03-0.329D-04
 Coeff:      0.190D-03-0.452D-03 0.220D-03 0.357D-02-0.140D-01 0.257D-01
 Coeff:      0.319D-01-0.412D+00 0.136D+01
 Gap=     0.944 Goal=   None    Shift=    0.000
 Gap=     0.612 Goal=   None    Shift=    0.000
 RMSDP=5.99D-09 MaxDP=4.06D-08 DE= 0.00D+00 OVMax= 0.00D+00

 SCF Done:  E(UHF) =  -152.606106146     A.U. after   19 cycles
             Convg  =    0.5992D-08             -V/T =  2.0064
 <Sx>= 0.0000 <Sy>= 0.0000 <Sz>= 0.5000 <S**2>= 0.7777 S= 0.5137
 <L.S>= 0.000000000000E+00
 KE= 1.516307886462D+02 PE=-5.315287435155D+02 EE= 1.405691415288D+02
 Annihilation of the first spin contaminant:
 S**2 before annihilation     0.7777,   after     0.7502
 Leave Link  502 at Thu Jan 24 17:06:34 2019, MaxMem=  134217728 cpu:       0.1
 (Enter /home/programs/G09_64/g09/l801.exe)
 Range of M.O.s used for correlation:     1    22
 NBasis=    22 NAE=    14 NBE=    13 NFC=     0 NFV=     0
 NROrb=     22 NOA=    14 NOB=    13 NVA=     8 NVB=     9
 Leave Link  801 at Thu Jan 24 17:06:34 2019, MaxMem=  134217728 cpu:       0.0
 (Enter /home/programs/G09_64/g09/l1101.exe)
 Using compressed storage, NAtomX=    10.
 Will process  11 centers per pass.
 Leave Link 1101 at Thu Jan 24 17:06:34 2019, MaxMem=  134217728 cpu:       0.1
 (Enter /home/programs/G09_64/g09/l1102.exe)
 Symmetrizing basis deriv contribution to polar:
 IMax=3 JMax=2 DiffMx= 0.00D+00
 Leave Link 1102 at Thu Jan 24 17:06:35 2019, MaxMem=  134217728 cpu:       0.1
 (Enter /home/programs/G09_64/g09/l1110.exe)
 Forming Gx(P) for the SCF density, NAtomX=    10.
 Integral derivatives from FoFDir/FoFCou, PRISM(SPDF).
 Do as many integral derivatives as possible in FoFDir.
 G2DrvN: MDV=     134217544.
 G2DrvN: will do    11 centers at a time, making    1 passes doing MaxLOS=1.
 Calling FoFCou, ICntrl=  3107 FMM=F I1Cent=   0 AccDes= 0.00D+00.
 FoFCou: FMM=F IPFlag=           0 FMFlag=      100000 FMFlg1=           0
         NFxFlg=           0 DoJE=F BraDBF=F KetDBF=F FulRan=T
         Omega=  0.000000  0.000000  1.000000  0.000000  0.000000 ICntrl=    3107 IOpCl=  1
         NMat0=    1 NMatS0=    1 NMatT0=    0 NMatD0=    1 NMtDS0=    0 NMtDT0=    0
         I1Cent=           0 NGrid=           0.
 Symmetry not used in FoFCou.
 FoFDir/FoFCou used for L=0 through L=1.
 End of G2Drv Frequency-dependent properties file   721 does not exist.
 End of G2Drv Frequency-dependent properties file   722 does not exist.
 Leave Link 1110 at Thu Jan 24 17:06:35 2019, MaxMem=  134217728 cpu:       0.2
 (Enter /home/programs/G09_64/g09/l1002.exe)
 Minotr:  UHF open shell wavefunction.
          IDoAtm=1111111111
          Direct CPHF calculation.
          Differentiating once with respect to nuclear coordinates.
          Requested convergence is 1.0D-06 RMS, and 1.0D-05 maximum.
          Secondary convergence is 1.0D-12 RMS, and 1.0D-12 maximum.
          NewPWx=T KeepS1=F KeepF1=F KeepIn=T MapXYZ=F SortEE=F KeepMc=T.
          MDV=     134217624 using IRadAn=       2.
          Keep R1 and R2 ints in memory in canonical form, NReq=864982.
 Symmetry not used in FoFDir.
 MinBra= 0 MaxBra= 1 Meth= 1.
 IRaf=       0 NMat=   1 IRICut=       1 DoRegI=T DoRafI=F ISym2E= 0 JSym2E=0.
          Solving linear equations simultaneously, MaxMat=       0.
          There are    33 degrees of freedom in the 1st order CPHF.  IDoFFX=5.
     27 vectors produced by pass  0 Test12= 6.94D-12 3.03D-07 XBig12= 5.81D-02 1.38D-01.
 AX will form    27 AO Fock derivatives at one time.
     27 vectors produced by pass  1 Test12= 6.94D-12 3.03D-07 XBig12= 6.25D-04 6.52D-03.
     27 vectors produced by pass  2 Test12= 6.94D-12 3.03D-07 XBig12= 4.30D-06 4.31D-04.
     27 vectors produced by pass  3 Test12= 6.94D-12 3.03D-07 XBig12= 4.11D-08 4.80D-05.
     12 vectors produced by pass  4 Test12= 6.94D-12 3.03D-07 XBig12= 1.70D-10 3.39D-06.
 Inverted reduced A of dimension   120 with in-core refinement.
 End of Minotr Frequency-dependent properties file   721 does not exist.
 End of Minotr Frequency-dependent properties file   722 does not exist.
 Leave Link 1002 at Thu Jan 24 17:06:35 2019, MaxMem=  134217728 cpu:       0.1
 (Enter /home/programs/G09_64/g09/l601.exe)
 Copying SCF densities to generalized density rwf, IOpCl= 1 IROHF=0.

 **********************************************************************

            Population analysis using the SCF density.

 **********************************************************************

 Alpha  occ. eigenvalues --  -20.31457 -11.10861 -11.05136  -1.34530  -0.98303
 Alpha  occ. eigenvalues --   -0.81658  -0.69359  -0.59511  -0.58789  -0.53111
 Alpha  occ. eigenvalues --   -0.50096  -0.47288  -0.39412  -0.37397
 Alpha virt. eigenvalues --    0.57038   0.62240   0.69055   0.71395   0.74739
 Alpha virt. eigenvalues --    0.75759   0.76099   0.80180
  Beta  occ. eigenvalues --  -20.29089 -11.11139 -11.05099  -1.23367  -0.97089
  Beta  occ. eigenvalues --   -0.80279  -0.62658  -0.58185  -0.55248  -0.51303
  Beta  occ. eigenvalues --   -0.48193  -0.41255  -0.36153
  Beta virt. eigenvalues --    0.25010   0.59039   0.62689   0.68985   0.72472
  Beta virt. eigenvalues --    0.75152   0.76068   0.76918   0.88290
          Condensed to atoms (all electrons):
              1          2          3          4          5          6
     1  C    4.742925   0.361558  -0.017967   0.383501   0.384872   0.384641
     2  C    0.361558   4.721576   0.249177  -0.019174  -0.021927  -0.022278
     3  O   -0.017967   0.249177   7.934288   0.000588  -0.000567  -0.000676
     4  H    0.383501  -0.019174   0.000588   0.611669  -0.020337  -0.020728
     5  H    0.384872  -0.021927  -0.000567  -0.020337   0.610064  -0.021435
     6  H    0.384641  -0.022278  -0.000676  -0.020728  -0.021435   0.611432
     7  H   -0.022148   0.373483  -0.018457  -0.002197  -0.002494   0.001946
     8  H   -0.026422   0.377474  -0.017065  -0.001465   0.001921  -0.002380
     9  H   -0.001426  -0.015150   0.046387   0.000018  -0.000007  -0.000095
    10  H   -0.000700   0.001419  -0.032711   0.000029  -0.000031  -0.000258
              7          8          9         10
     1  C   -0.022148  -0.026422  -0.001426  -0.000700
     2  C    0.373483   0.377474  -0.015150   0.001419
     3  O   -0.018457  -0.017065   0.046387  -0.032711
     4  H   -0.002197  -0.001465   0.000018   0.000029
     5  H   -0.002494   0.001921  -0.000007  -0.000031
     6  H    0.001946  -0.002380  -0.000095  -0.000258
     7  H    0.614163  -0.022445   0.001234   0.000025
     8  H   -0.022445   0.625777  -0.001747  -0.000500
     9  H    0.001234  -0.001747   0.597622   0.308165
    10  H    0.000025  -0.000500   0.308165   0.803181
 Mulliken atomic charges:
              1
     1  C   -0.188834
     2  C   -0.006158
     3  O   -0.142996
     4  H    0.068096
     5  H    0.069941
     6  H    0.069831
     7  H    0.076890
     8  H    0.066852
     9  H    0.064998
    10  H   -0.078619
 Sum of Mulliken atomic charges =   0.00000
 Mulliken charges with hydrogens summed into heavy atoms:
              1
     1  C    0.019034
     2  C    0.137583
     3  O   -0.156617
 Sum of Mulliken charges with hydrogens summed into heavy atoms =   0.00000
          Atomic-Atomic Spin Densities.
              1          2          3          4          5          6
     1  C    0.013418   0.003266  -0.000775  -0.000085  -0.000250  -0.000471
     2  C    0.003266  -0.102629  -0.015447   0.000419   0.000284   0.000431
     3  O   -0.000775  -0.015447   0.907623   0.000007  -0.000025   0.000179
     4  H   -0.000085   0.000419   0.000007  -0.003640   0.000120   0.000207
     5  H   -0.000250   0.000284  -0.000025   0.000120  -0.001399   0.000024
     6  H   -0.000471   0.000431   0.000179   0.000207   0.000024  -0.001738
     7  H   -0.002336   0.004954  -0.007114   0.000065  -0.000109   0.000074
     8  H    0.000812   0.002428  -0.001529   0.000004   0.000010  -0.000133
     9  H    0.000472  -0.001008   0.021432  -0.000017   0.000016   0.000128
    10  H    0.000228   0.000960  -0.024344  -0.000001   0.000017  -0.000395
              7          8          9         10
     1  C   -0.002336   0.000812   0.000472   0.000228
     2  C    0.004954   0.002428  -0.001008   0.000960
     3  O   -0.007114  -0.001529   0.021432  -0.024344
     4  H    0.000065   0.000004  -0.000017  -0.000001
     5  H   -0.000109   0.000010   0.000016   0.000017
     6  H    0.000074  -0.000133   0.000128  -0.000395
     7  H    0.055084  -0.003560  -0.000120  -0.000219
     8  H   -0.003560   0.016357   0.000420   0.000804
     9  H   -0.000120   0.000420  -0.206663  -0.012137
    10  H   -0.000219   0.000804  -0.012137   0.388220
 Mulliken atomic spin densities:
              1
     1  C    0.014278
     2  C   -0.106343
     3  O    0.880008
     4  H   -0.002921
     5  H   -0.001313
     6  H   -0.001694
     7  H    0.046718
     8  H    0.015613
     9  H   -0.197478
    10  H    0.353132
 Sum of Mulliken atomic spin densities =   1.00000
 APT atomic charges:
              1
     1  C   -0.998273
     2  C   -0.519787
     3  O   -0.172207
     4  H    0.422737
     5  H    0.310609
     6  H    0.307701
     7  H    0.338442
     8  H    0.329720
     9  H   -0.244151
    10  H    0.225209
 Sum of APT charges=   0.00000
 APT Atomic charges with hydrogens summed into heavy atoms:
              1
     1  C    0.042774
     2  C    0.148375
     3  O   -0.191149
     4  H    0.000000
     5  H    0.000000
     6  H    0.000000
     7  H    0.000000
     8  H    0.000000
     9  H    0.000000
    10  H    0.000000
 Sum of APT charges=   0.00000
 Electronic spatial extent (au):  <R**2>=            217.1731
 Charge=              0.0000 electrons
 Dipole moment (field-independent basis, Debye):
    X=              1.3505    Y=             -0.8301    Z=              0.2812  Tot=              1.6100
 Quadrupole moment (field-independent basis, Debye-Ang):
   XX=            -21.4227   YY=            -19.6652   ZZ=            -19.4376
   XY=              0.5980   XZ=             -0.0898   YZ=             -0.0535
 Traceless Quadrupole moment (field-independent basis, Debye-Ang):
   XX=             -1.2475   YY=              0.5100   ZZ=              0.7376
   XY=              0.5980   XZ=             -0.0898   YZ=             -0.0535
 Octapole moment (field-independent basis, Debye-Ang**2):
  XXX=             -4.3559  YYY=             -5.8151  ZZZ=             -3.9324  XYY=             -1.4665
  XXY=             -2.6422  XXZ=             -1.1289  XZZ=             -2.0813  YZZ=             -1.7275
  YYZ=             -1.7447  XYZ=              0.1843
 Hexadecapole moment (field-independent basis, Debye-Ang**3):
 XXXX=           -156.1334 YYYY=            -69.8009 ZZZZ=            -35.6509 XXXY=              1.3632
 XXXZ=              4.3409 YYYX=              3.8130 YYYZ=              0.4142 ZZZX=              1.8814
 ZZZY=             -1.3822 XXYY=            -39.2610 XXZZ=            -32.1651 YYZZ=            -17.9675
 XXYZ=             -0.9013 YYXZ=              1.9018 ZZXY=              1.0958
 N-N= 8.672270719455D+01 E-N=-7.909560500332D+02  KE= 2.262647404152D+02
  Exact polarizability:   0.000   0.000   0.000   0.000   0.000   0.000
 Approx polarizability:  10.085  -1.961  14.768   0.592   3.173  11.122
                          Isotropic Fermi Contact Couplings
        Atom                 a.u.       MegaHertz       Gauss      10(-4) cm-1
     1  C(13)              0.00435       4.88832       1.74427       1.63057
     2  C(13)             -0.03846     -43.23284     -15.42655     -14.42092
     3  O(17)              0.01857     -11.25528      -4.01616      -3.75436
     4  H(1)              -0.00137      -6.14448      -2.19250      -2.04958
     5  H(1)              -0.00055      -2.44972      -0.87412      -0.81714
     6  H(1)              -0.00066      -2.95443      -1.05422      -0.98549
     7  H(1)               0.02181      97.49038      34.78699      32.51929
     8  H(1)               0.00637      28.48454      10.16399       9.50142
     9  H(1)              -0.07915    -353.79713    -126.24361    -118.01402
    10  H(1)               0.14755     659.53623     235.33892     219.99761
 --------------------------------------------------------
       Center         ----  Spin Dipole Couplings  ----
                      3XX-RR        3YY-RR        3ZZ-RR
 --------------------------------------------------------
     1   Atom        0.016240     -0.005324     -0.010916
     2   Atom        0.027144     -0.020239     -0.006905
     3   Atom       -1.133985      1.188622     -0.054637
     4   Atom        0.005980     -0.002705     -0.003275
     5   Atom        0.008468     -0.005290     -0.003178
     6   Atom        0.008241     -0.002612     -0.005629
     7   Atom        0.011784     -0.000757     -0.011026
     8   Atom        0.001400     -0.002130      0.000730
     9   Atom       -0.122866      0.176975     -0.054109
    10   Atom        0.016242     -0.016305      0.000063
 --------------------------------------------------------
                        XY            XZ            YZ
 --------------------------------------------------------
     1   Atom        0.005930      0.000336     -0.000268
     2   Atom       -0.008044      0.017462     -0.012322
     3   Atom        0.130745      0.165319      1.669760
     4   Atom       -0.001387      0.001952     -0.000134
     5   Atom        0.002473     -0.005318     -0.000359
     6   Atom        0.004093      0.001602      0.002787
     7   Atom       -0.020842      0.003567     -0.009247
     8   Atom       -0.007010      0.016946     -0.005954
     9   Atom       -0.067517     -0.032808      0.163069
    10   Atom       -0.001082     -0.000215     -0.022781
 --------------------------------------------------------


 ---------------------------------------------------------------------------------
              Anisotropic Spin Dipole Couplings in Principal Axis System
 ---------------------------------------------------------------------------------

       Atom             a.u.   MegaHertz   Gauss  10(-4) cm-1        Axes

              Baa    -0.0109    -1.469    -0.524    -0.490 -0.0295  0.0785  0.9965
     1 C(13)  Bbb    -0.0068    -0.915    -0.326    -0.305 -0.2471  0.9654 -0.0834
              Bcc     0.0178     2.384     0.851     0.795  0.9686  0.2486  0.0090
 
              Baa    -0.0277    -3.714    -1.325    -1.239 -0.0484  0.8407  0.5393
     2 C(13)  Bbb    -0.0095    -1.272    -0.454    -0.424 -0.4599 -0.4981  0.7351
              Bcc     0.0372     4.987     1.779     1.663  0.8867 -0.2124  0.4108
 
              Baa    -1.2503    90.474    32.283    30.179 -0.5030 -0.4697  0.7255
     3 O(17)  Bbb    -1.1100    80.320    28.660    26.792  0.8624 -0.3287  0.3850
              Bcc     2.3604  -170.794   -60.943   -56.971  0.0576  0.8193  0.5704
 
              Baa    -0.0037    -1.972    -0.704    -0.658 -0.2190 -0.1772  0.9595
     4 H(1)   Bbb    -0.0029    -1.540    -0.549    -0.514  0.1072  0.9730  0.2042
              Bcc     0.0066     3.511     1.253     1.171  0.9698 -0.1476  0.1940
 
              Baa    -0.0060    -3.222    -1.150    -1.075 -0.3173  0.8135 -0.4874
     5 H(1)   Bbb    -0.0049    -2.592    -0.925    -0.865  0.2144  0.5622  0.7987
              Bcc     0.0109     5.814     2.075     1.939  0.9238  0.1489 -0.3528
 
              Baa    -0.0073    -3.911    -1.396    -1.305  0.0568 -0.5438  0.8373
     6 H(1)   Bbb    -0.0027    -1.418    -0.506    -0.473 -0.3658  0.7690  0.5242
              Bcc     0.0100     5.330     1.902     1.778  0.9290  0.3361  0.1553
 
              Baa    -0.0200   -10.668    -3.807    -3.559  0.4028  0.7125  0.5745
     7 H(1)   Bbb    -0.0091    -4.835    -1.725    -1.613 -0.4943 -0.3589  0.7918
              Bcc     0.0291    15.503     5.532     5.171  0.7703 -0.6029  0.2076
 
              Baa    -0.0159    -8.495    -3.031    -2.834  0.7100  0.0579 -0.7018
     8 H(1)   Bbb    -0.0056    -3.012    -1.075    -1.005  0.2160  0.9307  0.2952
              Bcc     0.0216    11.507     4.106     3.838  0.6703 -0.3612  0.6483
 
              Baa    -0.1397   -74.526   -26.593   -24.859 -0.5559 -0.4712  0.6848
     9 H(1)   Bbb    -0.1357   -72.429   -25.844   -24.160  0.8104 -0.1237  0.5727
              Bcc     0.2754   146.954    52.437    49.019 -0.1852  0.8733  0.4506
 
              Baa    -0.0323   -17.260    -6.159    -5.757  0.0207  0.8179  0.5750
    10 H(1)   Bbb     0.0157     8.387     2.993     2.798 -0.6343 -0.4338  0.6399
              Bcc     0.0166     8.873     3.166     2.960  0.7728 -0.3780  0.5098
 

 ---------------------------------------------------------------------------------

 No NMR shielding tensors so no spin-rotation constants.
 Leave Link  601 at Thu Jan 24 17:06:35 2019, MaxMem=  134217728 cpu:       0.2
 (Enter /home/programs/G09_64/g09/l701.exe)
 Compute integral second derivatives.
 ... and contract with generalized density number  0.
 Leave Link  701 at Thu Jan 24 17:06:35 2019, MaxMem=  134217728 cpu:       0.1
 (Enter /home/programs/G09_64/g09/l702.exe)
 L702 exits ... SP integral derivatives will be done elsewhere.
 Leave Link  702 at Thu Jan 24 17:06:35 2019, MaxMem=  134217728 cpu:       0.0
 (Enter /home/programs/G09_64/g09/l703.exe)
 Compute integral second derivatives, UseDBF=F ICtDFT=           0.
 Integral derivatives from FoFDir, PRISM(SPDF).
 Calling FoFJK, ICntrl=    100147 FMM=F ISym2X=0 I1Cent= 0 IOpClX= 1 NMat=1 NMatS=1 NMatT=0.
 FoFCou: FMM=F IPFlag=           0 FMFlag=      100000 FMFlg1=         800
         NFxFlg=           0 DoJE=F BraDBF=F KetDBF=F FulRan=T
         Omega=  0.000000  0.000000  1.000000  0.000000  0.000000 ICntrl=  100147 IOpCl=  1
         NMat0=    1 NMatS0=    1 NMatT0=    0 NMatD0=    1 NMtDS0=    0 NMtDT0=    0
         I1Cent=           0 NGrid=           0.
 Symmetry not used in FoFCou.
 Leave Link  703 at Thu Jan 24 17:06:36 2019, MaxMem=  134217728 cpu:       0.2
 (Enter /home/programs/G09_64/g09/l716.exe)
 Dipole        = 5.31329414D-01-3.26584949D-01 1.10619325D-01
 Polarizability= 0.00000000D+00 0.00000000D+00 0.00000000D+00
                 0.00000000D+00 0.00000000D+00 0.00000000D+00
 -------------------------------------------------------------------
 Center     Atomic                   Forces (Hartrees/Bohr)
 Number     Number              X              Y              Z
 -------------------------------------------------------------------
      1        6           0.023187790    0.017189480   -0.003421986
      2        6           0.014178007   -0.037106368    0.017151803
      3        8          -0.031513143   -0.027360461   -0.041371736
      4        1          -0.001446551   -0.000248070   -0.000774112
      5        1           0.000602941   -0.000058865   -0.000140085
      6        1           0.001124805   -0.000852727   -0.000942008
      7        1           0.005010281   -0.002726422    0.000396987
      8        1           0.001399466    0.001881540    0.004604802
      9        1          -0.014538897    0.090023654    0.050601454
     10        1           0.001995300   -0.040741762   -0.026105118
 -------------------------------------------------------------------
 Cartesian Forces:  Max     0.090023654 RMS     0.025467070
 Force constants in Cartesian coordinates: 
                1             2             3             4             5 
      1  0.806205D+00
      2 -0.352725D-01  0.827147D+00
      3  0.202119D-01  0.715074D-02  0.856714D+00
      4 -0.256926D+00 -0.114652D+00  0.498476D-01  0.807234D+00
      5 -0.115650D+00 -0.196760D+00  0.339665D-01 -0.589876D-02  0.780065D+00
      6  0.529358D-01  0.335978D-01 -0.140349D+00  0.423360D-01 -0.533127D-05
      7 -0.525698D-01  0.186515D-01 -0.180292D-01 -0.378831D+00  0.111644D+00
      8 -0.159654D-01  0.159544D-01 -0.109496D-01  0.133651D+00 -0.123800D+00
      9 -0.230992D-03 -0.352894D-02  0.102348D-01 -0.142625D+00  0.365912D-01
     10 -0.341672D+00  0.141639D+00 -0.108200D+00 -0.232075D-01  0.181078D-01
     11  0.140921D+00 -0.151124D+00  0.562094D-01 -0.238429D-01  0.134719D-01
     12 -0.108202D+00  0.559387D-01 -0.123383D+00  0.115644D-01 -0.655392D-02
     13 -0.788596D-01 -0.134024D-03  0.238192D-01 -0.152200D-02 -0.372757D-02
     14 -0.109306D-02 -0.836025D-01  0.384113D-01 -0.155631D-03 -0.271810D-02
     15  0.243497D-01  0.387770D-01 -0.459911D+00 -0.115696D-02 -0.828236D-03
     16 -0.794667D-01  0.280122D-01  0.106472D-01  0.373220D-02 -0.380227D-01
     17  0.273407D-01 -0.392325D+00 -0.143468D+00  0.333603D-02 -0.186893D-01
     18  0.110873D-01 -0.143602D+00 -0.147478D+00 -0.139550D-02  0.148258D-01
     19  0.478461D-02 -0.369414D-01 -0.164346D-01 -0.733197D-01  0.272381D-01
     20  0.263711D-02 -0.176220D-01 -0.100895D-01  0.208271D-01 -0.374076D+00
     21  0.347356D-03  0.145652D-01  0.670442D-02  0.978067D-02 -0.132859D+00
     22 -0.673095D-03 -0.267268D-02  0.381674D-01 -0.747340D-01 -0.826249D-02
     23 -0.362609D-02 -0.692198D-03  0.274669D-01 -0.103801D-01 -0.828427D-01
     24 -0.102743D-02 -0.233676D-02 -0.259786D-02  0.367216D-01  0.394559D-01
     25 -0.401456D-03  0.120962D-02 -0.516260D-03 -0.302130D-02  0.132720D-01
     26  0.140722D-02 -0.194805D-02  0.129900D-02 -0.314627D-02  0.110880D-01
     27  0.106407D-02 -0.882376D-03  0.939433D-03 -0.464731D-02  0.169683D-01
     28 -0.420922D-03  0.159538D-03  0.486499D-03  0.595174D-03  0.129995D-02
     29 -0.698992D-03  0.972794D-03  0.300275D-05  0.260874D-03 -0.573881D-02
     30 -0.536223D-03  0.320625D-03 -0.874647D-03 -0.425521D-03 -0.156095D-02
                6             7             8             9            10 
      6  0.846315D+00
      7 -0.157331D+00  0.438725D+00
      8  0.531976D-01 -0.161130D+00  0.188542D+00
      9 -0.142685D+00  0.186123D+00 -0.122291D-01  0.155050D+00
     10 -0.137164D-01 -0.435040D-02 -0.405492D-02  0.185440D-02  0.354733D+00
     11 -0.113816D-01 -0.621426D-02 -0.262907D-02  0.125059D-02 -0.147696D+00
     12  0.432298D-02  0.232546D-02  0.160114D-02  0.558176D-03  0.114690D+00
     13  0.419200D-01  0.393346D-02  0.136520D-02 -0.105936D-02  0.807048D-02
     14  0.291610D-01  0.171187D-02  0.906295D-03 -0.131840D-02 -0.472076D-02
     15 -0.325070D-02 -0.105642D-02 -0.492436D-03  0.558770D-03  0.656595D-02
     16 -0.183996D-01  0.343684D-02  0.895880D-03  0.505124D-03  0.234130D-02
     17 -0.100066D-01  0.184953D-02  0.844887D-03  0.559412D-03 -0.495407D-02
     18  0.685723D-02 -0.479962D-03 -0.483475D-03 -0.291685D-03 -0.102293D-02
     19  0.126494D-01 -0.104306D-01  0.415535D-01  0.145337D-01  0.206283D-02
     20 -0.139113D+00  0.133957D-01 -0.199659D-01 -0.323890D-02  0.724020D-03
     21 -0.140068D+00 -0.266379D-02  0.173376D-01  0.982512D-02 -0.325854D-03
     22  0.334813D-01 -0.630823D-02  0.947884D-02 -0.494517D-01  0.199681D-02
     23  0.422078D-01  0.856019D-02 -0.789221D-03  0.224023D-01  0.704073D-03
     24 -0.439072D+00 -0.102220D-01  0.540803D-02 -0.135573D-01  0.117781D-03
     25  0.573538D-02  0.123547D-02 -0.122988D-01 -0.131918D-01  0.165266D-04
     26  0.669848D-02 -0.167948D-01  0.365267D-01  0.766263D-02  0.391114D-03
     27  0.889973D-02 -0.166565D-01  0.120212D-01  0.422195D-02  0.180596D-03
     28  0.389194D-03  0.515947D-02  0.650434D-02  0.354268D-02  0.900309D-05
     29 -0.435625D-02  0.283264D-01 -0.955904D-01 -0.481508D-01 -0.140506D-03
     30 -0.970981D-03  0.179907D-01 -0.654110D-01 -0.239146D-01 -0.143723D-03
               11            12            13            14            15 
     11  0.149103D+00
     12 -0.611515D-01  0.115762D+00
     13  0.839464D-03 -0.394739D-01  0.731578D-01
     14 -0.882366D-03  0.200054D-01  0.564453D-02  0.758883D-01
     15 -0.302302D-02 -0.608475D-02 -0.279875D-01 -0.430270D-01  0.476105D+00
     16  0.338921D-01  0.198220D-01 -0.625948D-03  0.202707D-02 -0.338314D-03
     17 -0.101584D-01 -0.906136D-02 -0.907863D-03  0.108435D-01  0.853055D-02
     18  0.186338D-01  0.834419D-02  0.365865D-02 -0.432982D-01 -0.950230D-02
     19  0.112234D-02 -0.325466D-03  0.139607D-02  0.128176D-02 -0.310231D-03
     20  0.140413D-02  0.000000D+00  0.134941D-02  0.144272D-02 -0.182449D-03
     21 -0.389884D-03  0.109474D-03 -0.876714D-03  0.185906D-04  0.931281D-03
     22  0.906587D-03 -0.619214D-03 -0.556484D-02 -0.465925D-02 -0.564090D-04
     23  0.502379D-03 -0.574653D-03 -0.422515D-02 -0.178504D-02  0.145738D-03
     24 -0.145813D-03  0.467498D-03  0.213532D-04  0.676101D-04  0.119191D-02
     25 -0.291722D-03  0.122139D-03 -0.666364D-05  0.677138D-05 -0.612281D-04
     26  0.373994D-03 -0.241419D-03 -0.325364D-03 -0.129855D-03  0.906004D-04
     27  0.211511D-03 -0.261262D-03  0.417951D-05 -0.718770D-04  0.126550D-04
     28  0.363245D-03  0.960953D-04  0.212755D-04 -0.432964D-04  0.514503D-04
     29 -0.617960D-04  0.373950D-04  0.121375D-03  0.370202D-04  0.933123D-05
     30 -0.213505D-03  0.165592D-03 -0.258423D-04  0.515858D-04 -0.507703D-04
               16            17            18            19            20 
     16  0.761539D-01
     17 -0.252524D-01  0.407656D+00
     18 -0.141892D-01  0.152582D+00  0.140769D+00
     19 -0.611653D-02 -0.310034D-02  0.307109D-02  0.816786D-01
     20 -0.302339D-02 -0.155824D-03  0.125673D-02 -0.337532D-01  0.397998D+00
     21  0.247581D-02  0.124148D-02  0.270583D-03 -0.125483D-01  0.142907D+00
     22  0.134666D-02  0.105741D-02 -0.917591D-03  0.173128D-02 -0.216515D-02
     23  0.161539D-02  0.152711D-02 -0.607964D-04  0.293003D-02  0.927492D-02
     24 -0.623395D-03 -0.309910D-03  0.856878D-03  0.177426D-02  0.731761D-02
     25 -0.537850D-03  0.000000D+00  0.237112D-04 -0.180854D-02  0.246044D-03
     26 -0.374607D-03  0.528393D-03  0.316274D-03 -0.919765D-03  0.199470D-02
     27  0.303778D-04  0.403331D-04  0.147436D-03 -0.242331D-02  0.131927D-02
     28 -0.263880D-03  0.630945D-03  0.164371D-03  0.219913D-04 -0.237594D-03
     29  0.230446D-03 -0.716461D-04 -0.170429D-03  0.588957D-03 -0.295379D-03
     30  0.699467D-04 -0.108339D-03  0.266153D-04  0.133543D-04 -0.176644D-03
               21            22            23            24            25 
     21  0.133302D+00
     22  0.460685D-02  0.832681D-01
     23 -0.423003D-01  0.438578D-02  0.753224D-01
     24 -0.104104D-01 -0.268157D-01 -0.492083D-01  0.461637D+00
     25 -0.973187D-03 -0.550088D-03  0.386445D-03  0.209908D-03  0.556611D-01
     26 -0.141769D-02  0.377144D-02 -0.103845D-02  0.780085D-03  0.146900D-01
     27 -0.691741D-03  0.167961D-02 -0.748120D-03  0.927093D-03  0.213977D-01
     28  0.177110D-03 -0.512532D-03 -0.350526D-03 -0.156254D-03 -0.505872D-01
     29  0.897611D-03 -0.184050D-02  0.520820D-03 -0.102837D-02 -0.172204D-01
     30  0.279856D-04 -0.745873D-04  0.669448D-03  0.557068D-03 -0.127464D-01
               26            27            28            29            30 
     26  0.377784D-02
     27 -0.147490D-01  0.447336D-01
     28  0.130102D-02 -0.629437D-03  0.459776D-01
     29 -0.511732D-01 -0.141092D-01 -0.962762D-02  0.151401D+00
     30 -0.438915D-03 -0.589289D-01 -0.412170D-02  0.668677D-01  0.839626D-01
 Force constants in internal coordinates: 
                1             2             3             4             5 
      1  0.458842D+00
      2 -0.143729D-02  0.478444D+00
      3 -0.620108D-03 -0.485322D-02  0.482648D+00
      4 -0.638082D-03 -0.464300D-02 -0.466093D-02  0.478979D+00
      5  0.232465D-01 -0.967444D-03 -0.821137D-03 -0.146341D-02  0.600804D+00
      6 -0.724292D-05  0.112169D-03  0.399740D-04 -0.104500D-02  0.148867D-01
      7 -0.132390D-03  0.210458D-03 -0.101014D-02 -0.921273D-04  0.149549D-01
      8  0.114021D-03 -0.807380D-05 -0.949652D-04  0.285797D-03 -0.240577D-02
      9 -0.580979D-04 -0.443543D-04  0.347027D-04 -0.215064D-03 -0.171299D-02
     10  0.147956D-01  0.172176D-02 -0.478030D-02 -0.460760D-02  0.834307D-02
     11  0.166136D-01 -0.488998D-02  0.167228D-02 -0.465983D-02 -0.418824D-02
     12  0.188323D-01 -0.504910D-02 -0.481779D-02  0.767185D-03 -0.448650D-02
     13 -0.166546D-01  0.416408D-02  0.403626D-02 -0.159647D-03 -0.923575D-03
     14 -0.176566D-01  0.437200D-02 -0.135946D-03  0.451831D-02 -0.114025D-02
     15 -0.177818D-01 -0.476820D-04  0.429671D-02  0.450942D-02  0.238166D-02
     16  0.154798D-01  0.421775D-02 -0.297776D-02 -0.385797D-02  0.242178D-01
     17  0.124185D-01 -0.180627D-02 -0.900495D-03  0.305075D-02 -0.182282D-01
     18  0.103616D-01 -0.204699D-02  0.251189D-02 -0.883290D-03 -0.237412D-01
     19 -0.149758D-01 -0.550907D-03  0.111348D-02  0.819141D-03  0.420471D-02
     20 -0.159340D-01 -0.763226D-03  0.438124D-03  0.163121D-02  0.140348D-01
     21 -0.106284D-01  0.831064D-03 -0.185569D-03 -0.308299D-03 -0.449519D-03
     22  0.721495D-03 -0.109570D-04 -0.445051D-04 -0.220800D-02  0.279249D-01
     23  0.440573D-03  0.102057D-03  0.300895D-04 -0.873460D-03  0.111015D-02
     24  0.254227D-03  0.388001D-04 -0.275256D-02  0.231706D-02  0.352921D-02
     25 -0.702938D-03  0.760150D-03 -0.379959D-02  0.298489D-02  0.117038D-01
     26  0.553183D-03 -0.651930D-03 -0.303038D-02  0.400563D-02 -0.154868D-01
     27  0.189175D-04  0.316957D-02  0.275492D-03 -0.397678D-02  0.508537D-02
     28 -0.938247D-03  0.389092D-02 -0.771537D-03 -0.330895D-02  0.132600D-01
     29  0.317874D-03  0.247884D-02 -0.233177D-05 -0.228822D-02 -0.139306D-01
     30  0.593766D-03 -0.325476D-02  0.360270D-02 -0.854437D-03  0.249344D-02
     31 -0.363399D-03 -0.253342D-02  0.255567D-02 -0.186607D-03  0.106680D-01
     32  0.892722D-03 -0.394549D-02  0.332487D-02  0.834130D-03 -0.165226D-01
     33  0.459117D-05 -0.155903D-03 -0.118965D-02  0.235101D-02 -0.283899D-02
     34 -0.134496D-01  0.197267D-03  0.729837D-03  0.133308D-03  0.397545D-02
     35  0.133261D-01 -0.150762D-03  0.177479D-03 -0.626517D-03 -0.361470D-02
     36  0.587890D-04 -0.341242D-04 -0.184803D-04  0.101683D-03 -0.883949D-04
                6             7             8             9            10 
      6  0.463650D+00
      7 -0.352527D-02  0.469666D+00
      8 -0.165107D-02  0.281625D-03  0.746321D-01
      9  0.312835D-04 -0.548219D-03  0.137360D+00  0.193265D+00
     10 -0.154278D-02 -0.826823D-03  0.660317D-03 -0.530645D-03  0.141259D+00
     11 -0.221006D-02  0.260247D-02 -0.423973D-03  0.182239D-03 -0.259192D-01
     12  0.290430D-02 -0.229442D-02  0.466626D-04  0.399998D-03 -0.253571D-01
     13  0.961424D-03 -0.370055D-03 -0.137565D-03  0.111693D-03 -0.553825D-01
     14 -0.136149D-03  0.772560D-03 -0.250856D-03  0.946135D-05 -0.549959D-01
     15  0.778972D-04  0.120160D-03  0.952069D-04 -0.172484D-03  0.168346D-01
     16 -0.520503D-02 -0.381153D-02  0.208069D-02 -0.101786D-02  0.279485D-01
     17 -0.154145D-02 -0.455020D-02  0.658674D-04 -0.898066D-04 -0.981276D-02
     18 -0.308356D-02  0.100389D-02 -0.261600D-02  0.138709D-02 -0.119550D-01
     19  0.748321D-02  0.670540D-03 -0.214016D-02  0.124806D-02 -0.572430D-02
     20  0.339663D-03  0.331355D-02  0.187868D-02 -0.125673D-02 -0.707066D-02
     21  0.337439D-02  0.368948D-02  0.716073D-03 -0.248975D-03  0.564142D-02
     22  0.274302D-03 -0.266857D-02 -0.197091D-01  0.125580D-01 -0.669678D-03
     23 -0.341072D-03 -0.684951D-03  0.920045D-03  0.265150D-02 -0.316002D-03
     24 -0.321894D-02  0.172107D-02  0.124776D-02 -0.740540D-03 -0.410677D-03
     25  0.193466D-02 -0.283049D-02 -0.108487D-03  0.137456D-03  0.319755D-02
     26  0.320793D-02 -0.528700D-03 -0.818739D-03  0.641549D-03 -0.359556D-02
     27 -0.448150D-02  0.242916D-02  0.122912D-02 -0.828543D-03  0.572973D-02
     28  0.672094D-03 -0.212241D-02 -0.127131D-03  0.494532D-04  0.933796D-02
     29  0.194537D-02  0.179386D-03 -0.837384D-03  0.553547D-03  0.254486D-02
     30 -0.393616D-02  0.277228D-02  0.110631D-02 -0.670144D-03 -0.615930D-02
     31  0.121743D-02 -0.177929D-02 -0.249938D-03  0.207852D-03 -0.255108D-02
     32  0.249071D-02  0.522502D-03 -0.960191D-03  0.711946D-03 -0.934418D-02
     33  0.286919D-02 -0.393557D-02  0.400438D-03 -0.413493D-03 -0.180795D-05
     34  0.263626D-02  0.311704D-02  0.614018D-03 -0.577176D-03  0.105790D-02
     35 -0.530191D-02 -0.287862D-02  0.115629D-03 -0.412866D-03  0.527958D-03
     36 -0.120126D-04 -0.224494D-03  0.288945D-05  0.483582D-04  0.115199D-03
               11            12            13            14            15 
     11  0.145458D+00
     12 -0.263992D-01  0.149171D+00
     13 -0.570535D-01  0.163820D-01  0.726677D-01
     14  0.166499D-01 -0.586613D-01  0.133038D-01  0.730124D-01
     15 -0.566058D-01 -0.580878D-01  0.137925D-01  0.141339D-01  0.735524D-01
     16 -0.171616D-01 -0.902470D-02 -0.350458D-02 -0.649133D-02  0.812358D-02
     17 -0.580366D-02  0.183522D-01  0.451352D-02 -0.280578D-02 -0.443431D-02
     18  0.210025D-01 -0.629774D-02 -0.318128D-02  0.523581D-02 -0.496584D-02
     19  0.753305D-02 -0.480191D-02 -0.763817D-04  0.355367D-02 -0.403148D-03
     20 -0.223479D-02  0.635822D-02  0.303838D-02  0.956856D-03 -0.891533D-03
     21 -0.405265D-02 -0.350174D-02 -0.173998D-03 -0.374138D-03  0.251677D-02
     22 -0.244288D-03  0.234884D-02 -0.962446D-04 -0.736649D-03 -0.641757D-03
     23  0.134766D-04  0.494098D-03 -0.494783D-04 -0.213719D-04 -0.124365D-03
     24 -0.437606D-02  0.506061D-02 -0.936384D-02  0.943598D-02 -0.260256D-03
     25 -0.941620D-02  0.564395D-02 -0.862875D-02  0.800861D-02  0.132022D-02
     26 -0.499031D-02  0.911494D-02 -0.794542D-02  0.903109D-02 -0.151569D-02
     27  0.289683D-02 -0.842352D-02  0.785307D-02  0.100864D-02 -0.921170D-02
     28 -0.214331D-02 -0.784017D-02  0.858816D-02 -0.418722D-03 -0.763123D-02
     29  0.228258D-02 -0.436918D-02  0.927149D-02  0.603760D-03 -0.104671D-01
     30  0.857773D-02 -0.194951D-02 -0.975448D-03 -0.836452D-02  0.886016D-02
     31  0.353759D-02 -0.136617D-02 -0.240357D-03 -0.979188D-02  0.104406D-01
     32  0.796348D-02  0.210482D-02  0.442974D-03 -0.876940D-02  0.760473D-02
     33 -0.803362D-02  0.789361D-02  0.264513D-02 -0.232612D-02 -0.118567D-03
     34  0.305676D-02 -0.656243D-02 -0.952108D-03  0.215630D-02  0.129621D-02
     35  0.473174D-02 -0.269931D-02 -0.199165D-02  0.328178D-03 -0.101660D-02
     36  0.000000D+00 -0.159434D-04 -0.464268D-04 -0.393862D-04 -0.169301D-04
               16            17            18            19            20 
     16  0.185990D+00
     17 -0.376724D-01  0.946790D-01
     18 -0.465762D-01 -0.135884D-01  0.976489D-01
     19 -0.654433D-01 -0.395236D-01  0.268732D-01  0.751073D-01
     20 -0.774712D-01  0.278388D-01 -0.407476D-01  0.126538D-01  0.906630D-01
     21  0.304806D-01 -0.304078D-01 -0.298120D-01 -0.423468D-02 -0.361403D-02
     22  0.652318D-02 -0.855640D-02  0.397467D-03  0.336097D-02 -0.293125D-02
     23  0.274066D-02 -0.150842D-02 -0.626331D-05 -0.817746D-03 -0.986309D-03
     24  0.490985D-03  0.396526D-02 -0.477471D-02 -0.149781D-01  0.141075D-01
     25  0.851110D-02 -0.605956D-02 -0.893002D-02  0.125407D-01  0.490261D-03
     26 -0.701042D-02  0.835920D-02  0.659406D-02 -0.123154D-02 -0.117363D-01
     27  0.312551D-02 -0.635951D-03 -0.277069D-02 -0.138663D-01  0.118067D-01
     28  0.111456D-01 -0.106608D-01 -0.692600D-02  0.136524D-01 -0.181051D-02
     29 -0.437589D-02  0.375799D-02  0.859808D-02 -0.119783D-03 -0.140371D-01
     30 -0.352965D-02  0.190048D-02  0.446632D-03 -0.126282D-01  0.133444D-01
     31  0.449046D-02 -0.812434D-02 -0.370868D-02  0.148905D-01 -0.272810D-03
     32 -0.110311D-01  0.629442D-02  0.118154D-01  0.111834D-02 -0.124994D-01
     33 -0.683572D-02  0.329450D-01 -0.273523D-01 -0.776186D-02  0.142759D-01
     34 -0.156930D-01 -0.367850D-01 -0.399086D-02  0.258521D-01  0.126253D-01
     35  0.160113D-01  0.715583D-02  0.334765D-01 -0.138276D-01 -0.280107D-01
     36 -0.133950D-03  0.216962D-03  0.145392D-03  0.179539D-03 -0.250169D-03
               21            22            23            24            25 
     21  0.402025D-01
     22  0.787858D-03  0.151928D+00
     23  0.326318D-03  0.150562D-01  0.427598D-01
     24  0.544129D-03  0.344657D-03  0.651391D-03  0.206464D-01
     25 -0.611756D-02  0.292035D-02  0.319115D-03  0.475795D-02  0.217722D-01
     26  0.566872D-02 -0.134536D-02 -0.247504D-03  0.498177D-02  0.465001D-02
     27  0.135716D-02 -0.376428D-03  0.390868D-03  0.574832D-02 -0.101715D-01
     28 -0.530453D-02  0.219927D-02  0.585920D-04 -0.101401D-01  0.684273D-02
     29  0.648175D-02 -0.206645D-02 -0.508027D-03 -0.991626D-02 -0.102794D-01
     30 -0.348558D-03  0.174706D-03  0.561526D-03  0.586992D-02 -0.109332D-01
     31 -0.701024D-02  0.275040D-02  0.229250D-03 -0.100185D-01  0.608104D-02
     32  0.477603D-02 -0.151531D-02 -0.337369D-03 -0.979466D-02 -0.110411D-01
     33 -0.213617D-02 -0.577994D-02 -0.183528D-02 -0.455586D-02  0.338086D-02
     34  0.215819D-01 -0.959406D-03 -0.906013D-03 -0.956528D-05 -0.173419D-02
     35 -0.209908D-01 -0.238754D-02 -0.439323D-03  0.124397D-02 -0.144402D-02
     36 -0.151403D-03 -0.530211D-03 -0.388269D-03 -0.229005D-03  0.581118D-04
               26            27            28            29            30 
     26  0.212224D-01
     27 -0.106316D-01  0.212668D-01
     28 -0.109633D-01  0.534697D-02  0.223298D-01
     29  0.560907D-02  0.488688D-02  0.452371D-02  0.204122D-01
     30 -0.986562D-02  0.625690D-02 -0.105462D-01 -0.947864D-02  0.215184D-01
     31 -0.101974D-01 -0.966291D-02  0.643661D-02 -0.984181D-02  0.471532D-02
     32  0.637502D-02 -0.101230D-01 -0.113695D-01  0.604669D-02  0.578287D-02
     33  0.469351D-02 -0.653257D-02  0.140414D-02  0.271680D-02 -0.675785D-02
     34 -0.100063D-02  0.150442D-02 -0.220207D-03  0.513354D-03  0.865097D-03
     35 -0.194318D-02  0.220997D-02 -0.478023D-03 -0.977181D-03  0.224099D-02
     36  0.100350D-03 -0.211972D-03  0.751454D-04  0.117384D-03 -0.243570D-03
               31            32            33            34            35 
     31  0.208148D-01
     32  0.453641D-02  0.219525D-01
     33  0.117887D-02  0.249152D-02  0.237362D-01
     34 -0.859530D-03 -0.125969D-03 -0.761830D-02  0.284654D-01
     35 -0.447004D-03 -0.946162D-03 -0.711733D-02 -0.152137D-01  0.279852D-01
     36  0.435469D-04  0.857854D-04  0.543712D-03  0.235485D-03  0.421485D-03
               36 
     36  0.714594D-03
 Leave Link  716 at Thu Jan 24 17:06:36 2019, MaxMem=  134217728 cpu:       0.1
 (Enter /home/programs/G09_64/g09/l103.exe)

 GradGradGradGradGradGradGradGradGradGradGradGradGradGradGradGradGradGrad
 Berny optimization.
 Red2BG is reusing G-inverse.
 Internal  Forces:  Max     0.056430981 RMS     0.015953408
 Search for a saddle point.
 Step number   1 out of a maximum of   46
 All quantities printed in internal units (Hartrees-Bohrs-Radians)
 Swaping is turned off.
 Second derivative matrix not updated -- analytic derivatives used.
 ITU=  0
     Eigenvalues ---   -0.01916   0.00064   0.00220   0.00628   0.04070
     Eigenvalues ---    0.06551   0.06642   0.06891   0.07446   0.14173
     Eigenvalues ---    0.15206   0.16913   0.18595   0.19298   0.23094
     Eigenvalues ---    0.28353   0.28864   0.45786   0.46753   0.47139
     Eigenvalues ---    0.47354   0.48404   0.48689   0.61570
 Eigenvectors required to have negative eigenvalues:
                          R8        R9        A13       A14       A11
   1                    0.82655  -0.54299   0.13772  -0.02161  -0.01774
                          D1        D11       D7        D4        D12
   1                   -0.01768  -0.01736  -0.01684  -0.01628  -0.01552
 RFO step:  Lambda0=6.444155990D-02 Lambda=-7.70718246D-03.
 Linear search not attempted -- option 19 set.
 Maximum step size (   0.300) exceeded in Quadratic search.
    -- Step size scaled by   0.337
 Iteration  1 RMS(Cart)=  0.04337803 RMS(Int)=  0.00983260
 Iteration  2 RMS(Cart)=  0.00955955 RMS(Int)=  0.00015833
 Iteration  3 RMS(Cart)=  0.00003652 RMS(Int)=  0.00001861
 Iteration  4 RMS(Cart)=  0.00000002 RMS(Int)=  0.00001861
 Variable       Old X    -DE/DX   Delta X   Delta X   Delta X     New X
                                 (Linear)    (Quad)   (Total)
    R1        2.85216   0.02886   0.00000   0.02096   0.02096   2.87312
    R2        2.05419  -0.00136   0.00000  -0.00083  -0.00083   2.05337
    R3        2.05116   0.00018   0.00000   0.00017   0.00017   2.05133
    R4        2.05420  -0.00124   0.00000  -0.00092  -0.00092   2.05328
    R5        2.63264   0.05179   0.00000   0.02884   0.02884   2.66148
    R6        2.06823   0.00270   0.00000  -0.00017  -0.00017   2.06806
    R7        2.06341   0.00419   0.00000   0.00198   0.00198   2.06539
    R8        2.36100   0.05643   0.00000  -0.24738  -0.24738   2.11362
    R9        1.62650  -0.04842   0.00000   0.14934   0.14934   1.77584
    A1        1.93208  -0.00150   0.00000  -0.00635  -0.00635   1.92572
    A2        1.92784   0.00047   0.00000  -0.00067  -0.00068   1.92716
    A3        1.92558   0.00195   0.00000   0.00468   0.00468   1.93026
    A4        1.89854  -0.00013   0.00000  -0.00081  -0.00082   1.89772
    A5        1.88823  -0.00008   0.00000   0.00187   0.00188   1.89011
    A6        1.89050  -0.00075   0.00000   0.00142   0.00142   1.89192
    A7        1.98769   0.00062   0.00000   0.00333   0.00335   1.99104
    A8        1.92607  -0.00345   0.00000  -0.01076  -0.01078   1.91529
    A9        1.94619  -0.00255   0.00000  -0.00874  -0.00876   1.93742
   A10        1.79903   0.00409   0.00000   0.00530   0.00531   1.80434
   A11        1.93952   0.00029   0.00000   0.00635   0.00636   1.94587
   A12        1.85528   0.00148   0.00000   0.00546   0.00538   1.86066
   A13        1.88485   0.00412   0.00000  -0.06099  -0.06099   1.82387
   A14        2.96810   0.00153   0.00000   0.03333   0.03333   3.00143
    D1       -3.05278  -0.00108   0.00000   0.01646   0.01646  -3.03633
    D2       -1.03944   0.00215   0.00000   0.01803   0.01801  -1.02144
    D3        1.01835   0.00017   0.00000   0.01243   0.01245   1.03079
    D4       -0.94885  -0.00191   0.00000   0.01084   0.01084  -0.93800
    D5        1.06449   0.00132   0.00000   0.01241   0.01239   1.07689
    D6        3.12228  -0.00066   0.00000   0.00681   0.00683   3.12912
    D7        1.14084  -0.00129   0.00000   0.01518   0.01519   1.15602
    D8       -3.12901   0.00194   0.00000   0.01675   0.01673  -3.11228
    D9       -1.07122  -0.00003   0.00000   0.01115   0.01118  -1.06004
   D10       -1.16399  -0.00003   0.00000   0.01174   0.01173  -1.15226
   D11        3.03238   0.00120   0.00000   0.01963   0.01965   3.05202
   D12        1.05154  -0.00275   0.00000   0.00790   0.00788   1.05942
   D13       -0.05800  -0.00002   0.00000  -0.01389  -0.01389  -0.07189
         Item               Value     Threshold  Converged?
 Maximum Force            0.056431     0.000450     NO 
 RMS     Force            0.015953     0.000300     NO 
 Maximum Displacement     0.182681     0.001800     NO 
 RMS     Displacement     0.050270     0.001200     NO 
 Predicted change in Energy= 1.872318D-02
 GradGradGradGradGradGradGradGradGradGradGradGradGradGradGradGradGradGrad

 Leave Link  103 at Thu Jan 24 17:06:36 2019, MaxMem=  134217728 cpu:       0.0
 (Enter /home/programs/G09_64/g09/l202.exe)
                          Input orientation:                          
 ---------------------------------------------------------------------
 Center     Atomic      Atomic             Coordinates (Angstroms)
 Number     Number       Type             X           Y           Z
 ---------------------------------------------------------------------
      1          6           0        1.261211    0.344002   -0.074396
      2          6           0        0.039028   -0.486566    0.283377
      3          8           0       -1.165533   -0.000287   -0.260806
      4          1           0        2.165193   -0.140258    0.284768
      5          1           0        1.334802    0.465359   -1.150595
      6          1           0        1.199362    1.329747    0.378453
      7          1           0        0.129808   -1.485356   -0.154604
      8          1           0       -0.037423   -0.625437    1.364776
      9          1           0       -1.326443    0.982334    0.248667
     10          1           0       -1.354343    1.778540    0.747043
 ---------------------------------------------------------------------
                    Distance matrix (angstroms):
                    1          2          3          4          5
     1  C    0.000000
     2  C    1.520387   0.000000
     3  O    2.458123   1.408392   0.000000
     4  H    1.086595   2.154184   3.378014   0.000000
     5  H    1.085517   2.154406   2.694480   1.765386   0.000000
     6  H    1.086551   2.157408   2.787539   1.761398   1.761674
     7  H    2.152453   1.094372   1.973478   2.478937   2.499859
     8  H    2.167367   1.092957   2.075081   2.500666   3.065930
     9  H    2.684734   2.005838   1.118481   3.667839   3.050807
    10  H    3.094153   2.699476   2.053201   4.035172   3.543581
                    6          7          8          9         10
     6  H    0.000000
     7  H    3.058251   0.000000
     8  H    2.514998   1.753837   0.000000
     9  H    2.552887   2.893577   2.343545   0.000000
    10  H    2.618909   3.697119   2.809800   0.939734   0.000000
 Symmetry turned off by external request.
 Stoichiometry    C2H7O(2)
 Framework group  C1[X(C2H7O)]
 Deg. of freedom    24
 Full point group                 C1      NOp   1
 Rotational constants (GHZ):     26.6690374      8.6177401      7.6837739
 Leave Link  202 at Thu Jan 24 17:06:36 2019, MaxMem=  134217728 cpu:       0.0
 (Enter /home/programs/G09_64/g09/l301.exe)
 Standard basis: STO-3G (5D, 7F)
 Ernie: Thresh=  0.10000D-02 Tol=  0.10000D-05 Strict=F.
 Integral buffers will be    131072 words long.
 Raffenetti 2 integral format.
 Two-electron integral symmetry is turned off.
    22 basis functions,    66 primitive gaussians,    22 cartesian basis functions
    14 alpha electrons       13 beta electrons
       nuclear repulsion energy        86.8821036357 Hartrees.
 IExCor=    0 DFT=F Ex=HF Corr=None ExCW=0 ScaHFX=  1.000000
 ScaDFX=  1.000000  1.000000  1.000000  1.000000 ScalE2=  1.000000  1.000000
 IRadAn=      0 IRanWt=     -1 IRanGd=            0 ICorTp=0
 NAtoms=   10 NActive=   10 NUniq=   10 SFac= 1.00D+00 NAtFMM=   50 NAOKFM=F Big=F
 Leave Link  301 at Thu Jan 24 17:06:36 2019, MaxMem=  134217728 cpu:       0.0
 (Enter /home/programs/G09_64/g09/l302.exe)
 NPDir=0 NMtPBC=     1 NCelOv=     1 NCel=       1 NClECP=     1 NCelD=      1
         NCelK=      1 NCelE2=     1 NClLst=     1 CellRange=     0.0.
 One-electron integrals computed using PRISM.
 NBasis=    22 RedAO= T  NBF=    22
 NBsUse=    22 1.00D-06 NBFU=    22
 Leave Link  302 at Thu Jan 24 17:06:36 2019, MaxMem=  134217728 cpu:       0.1
 (Enter /home/programs/G09_64/g09/l303.exe)
 DipDrv:  MaxL=1.
 Leave Link  303 at Thu Jan 24 17:06:36 2019, MaxMem=  134217728 cpu:       0.0
 (Enter /home/programs/G09_64/g09/l401.exe)
 Initial guess read from the read-write file.
 B after Tr=     0.000000    0.000000    0.000000
         Rot=    1.000000    0.000000    0.000000    0.000000 Ang=   0.00 deg.
 Guess basis will be translated and rotated to current coordinates.
 Initial guess <Sx>= 0.0000 <Sy>= 0.0000 <Sz>= 0.5000 <S**2>= 0.7784 S= 0.5141
 Generating alternative initial guess.
 Harris functional with IExCor=  205 diagonalized for initial guess.
 ExpMin= 1.69D-01 ExpMax= 1.31D+02 ExpMxC= 1.31D+02 IAcc=1 IRadAn=         1 AccDes= 0.00D+00
 HarFok:  IExCor=  205 AccDes= 0.00D+00 IRadAn=         1 IDoV= 1
 ScaDFX=  1.000000  1.000000  1.000000  1.000000
 FoFCou: FMM=F IPFlag=           0 FMFlag=      100000 FMFlg1=           0
         NFxFlg=           0 DoJE=T BraDBF=F KetDBF=T FulRan=T
         Omega=  0.000000  0.000000  1.000000  0.000000  0.000000 ICntrl=     500 IOpCl=  0
         NMat0=    1 NMatS0=    1 NMatT0=    0 NMatD0=    1 NMtDS0=    0 NMtDT0=    0
         I1Cent=           4 NGrid=           0.
 Symmetry not used in FoFCou.
 Harris En= -152.798115492492    
 Leave Link  401 at Thu Jan 24 17:06:36 2019, MaxMem=  134217728 cpu:       0.3
 (Enter /home/programs/G09_64/g09/l502.exe)
 UHF open shell SCF:
 Requested convergence on RMS density matrix=1.00D-08 within 128 cycles.
 Requested convergence on MAX density matrix=1.00D-06.
 Requested convergence on             energy=1.00D-06.
 No special actions if energy rises.
 Using DIIS extrapolation, IDIIS=  1040.
 Two-electron integral symmetry not used.
 Keep R1 and R2 ints in memory in canonical form, NReq=884165.
 IEnd=       19882 IEndB=       19882 NGot=   134217728 MDV=   134150703
 LenX=   134150703 LenY=   134149778
 Symmetry not used in FoFDir.
 MinBra= 0 MaxBra= 1 Meth= 1.
 IRaf=       0 NMat=   1 IRICut=       1 DoRegI=T DoRafI=F ISym2E= 0 JSym2E=0.

 Cycle   1  Pass 1  IDiag  1:
 E= -152.577964468350    
 DIIS: error= 1.23D-02 at cycle   1 NSaved=   1.
 NSaved= 1 IEnMin= 1 EnMin= -152.577964468350     IErMin= 1 ErrMin= 1.23D-02
 ErrMax= 1.23D-02 EMaxC= 1.00D-01 BMatC= 7.91D-03 BMatP= 7.91D-03
 IDIUse=3 WtCom= 8.77D-01 WtEn= 1.23D-01
[...]
     35 -0.206190D-01 -0.351933D-02 -0.246809D-03  0.183045D-02 -0.159081D-02
     36 -0.351820D-04 -0.451914D-03 -0.191895D-03 -0.475642D-04 -0.135983D-04
               26            27            28            29            30 
     26  0.213499D-01
     27 -0.110460D-01  0.216366D-01
     28 -0.107069D-01  0.543380D-02  0.219794D-01
     29  0.575340D-02  0.454100D-02  0.471110D-02  0.204725D-01
     30 -0.102559D-01  0.656091D-02 -0.104256D-01 -0.977361D-02  0.216367D-01
     31 -0.991678D-02 -0.964185D-02  0.612002D-02 -0.960351D-02  0.465020D-02
     32  0.654353D-02 -0.105346D-01 -0.111483D-01  0.615793D-02  0.530219D-02
     33  0.445520D-02 -0.604778D-02  0.130448D-02  0.228369D-02 -0.620113D-02
     34 -0.131785D-02  0.207096D-02 -0.548884D-03 -0.235775D-04  0.168559D-02
     35 -0.241519D-02  0.285389D-02 -0.567364D-03 -0.139175D-02  0.286834D-02
     36  0.192390D-04 -0.336128D-04  0.000000D+00  0.331904D-04 -0.476726D-04
               31            32            33            34            35 
     31  0.204121D-01
     32  0.468853D-02  0.219948D-01
     33  0.115113D-02  0.213034D-02  0.237591D-01
     34 -0.934252D-03 -0.408946D-03 -0.716113D-02  0.310660D-01
     35 -0.552913D-03 -0.137730D-02 -0.835076D-02 -0.165304D-01  0.293539D-01
     36 -0.137067D-04  0.191306D-04  0.152298D-03  0.939041D-04  0.364344D-04
               36 
     36  0.136155D-03
 Leave Link  716 at Thu Jan 24 17:07:06 2019, MaxMem=  134217728 cpu:       0.1
 (Enter /home/programs/G09_64/g09/l103.exe)

 GradGradGradGradGradGradGradGradGradGradGradGradGradGradGradGradGradGrad
 Berny optimization.
 Red2BG is reusing G-inverse.
 Internal  Forces:  Max     0.000008974 RMS     0.000002233
 Search for a saddle point.
 Step number   1 out of a maximum of    2
 All quantities printed in internal units (Hartrees-Bohrs-Radians)
 Swaping is turned off.
 Second derivative matrix not updated -- analytic derivatives used.
 ITU=  0
     Eigenvalues ---   -0.09662   0.00013   0.00213   0.00634   0.02804
     Eigenvalues ---    0.06542   0.06640   0.07066   0.07505   0.14301
     Eigenvalues ---    0.16031   0.18277   0.18498   0.22616   0.26864
     Eigenvalues ---    0.28976   0.33234   0.40404   0.45538   0.46812
     Eigenvalues ---    0.47232   0.48634   0.48736   0.53249
 Eigenvectors required to have negative eigenvalues:
                          R9        R8        A14       R5        A10
   1                   -0.89609   0.44022  -0.03233   0.02297  -0.02066
                          A9        D5        D10       D11       A11
   1                    0.01327  -0.01013  -0.00993  -0.00964  -0.00926
 Angle between quadratic step and forces=  83.77 degrees.
 Linear search not attempted -- option 19 set.
 Iteration  1 RMS(Cart)=  0.00013471 RMS(Int)=  0.00000304
 Iteration  2 RMS(Cart)=  0.00000040 RMS(Int)=  0.00000000
 Variable       Old X    -DE/DX   Delta X   Delta X   Delta X     New X
                                 (Linear)    (Quad)   (Total)
    R1        2.92289   0.00000   0.00000  -0.00001  -0.00001   2.92288
    R2        2.05170   0.00000   0.00000   0.00000   0.00000   2.05170
    R3        2.05155   0.00000   0.00000   0.00000   0.00000   2.05155
    R4        2.05211   0.00000   0.00000   0.00000   0.00000   2.05211
    R5        2.71666   0.00000   0.00000   0.00000   0.00000   2.71666
    R6        2.06800   0.00000   0.00000   0.00000   0.00000   2.06800
    R7        2.07190   0.00000   0.00000   0.00000   0.00000   2.07190
    R8        2.01592   0.00000   0.00000   0.00003   0.00003   2.01595
    R9        2.07866   0.00001   0.00000  -0.00002  -0.00002   2.07865
    A1        1.91865   0.00000   0.00000   0.00001   0.00001   1.91866
    A2        1.92663   0.00000   0.00000   0.00000   0.00000   1.92663
    A3        1.93546   0.00000   0.00000   0.00000   0.00000   1.93546
    A4        1.89636   0.00000   0.00000   0.00000   0.00000   1.89637
    A5        1.89212   0.00000   0.00000   0.00000   0.00000   1.89212
    A6        1.89372   0.00000   0.00000   0.00000   0.00000   1.89372
    A7        1.98043   0.00000   0.00000  -0.00001  -0.00001   1.98043
    A8        1.90596   0.00000   0.00000   0.00001   0.00001   1.90596
    A9        1.91246   0.00000   0.00000   0.00001   0.00001   1.91248
   A10        1.84639   0.00000   0.00000  -0.00002  -0.00002   1.84637
   A11        1.94123   0.00000   0.00000   0.00000   0.00000   1.94123
   A12        1.87306   0.00000   0.00000   0.00000   0.00000   1.87306
   A13        1.81945   0.00000   0.00000   0.00000   0.00000   1.81945
   A14        3.06817  -0.00001   0.00000  -0.00032  -0.00032   3.06785
    D1       -3.05373   0.00000   0.00000  -0.00001  -0.00001  -3.05374
    D2       -0.99888   0.00000   0.00000  -0.00003  -0.00003  -0.99890
    D3        1.04814   0.00000   0.00000  -0.00002  -0.00002   1.04812
    D4       -0.96196   0.00000   0.00000   0.00000   0.00000  -0.96196
    D5        1.09289   0.00000   0.00000  -0.00002  -0.00002   1.09287
    D6        3.13991   0.00000   0.00000  -0.00001  -0.00001   3.13990
    D7        1.13736   0.00000   0.00000  -0.00001  -0.00001   1.13735
    D8       -3.09097   0.00000   0.00000  -0.00003  -0.00003  -3.09100
    D9       -1.04396   0.00000   0.00000  -0.00002  -0.00002  -1.04398
   D10       -1.16449   0.00000   0.00000  -0.00029  -0.00029  -1.16478
   D11        3.02955   0.00000   0.00000  -0.00028  -0.00028   3.02927
   D12        1.00127   0.00000   0.00000  -0.00027  -0.00027   1.00100
   D13       -0.28740   0.00000   0.00000   0.00432   0.00432  -0.28308
         Item               Value     Threshold  Converged?
 Maximum Force            0.000009     0.000450     YES
 RMS     Force            0.000002     0.000300     YES
 Maximum Displacement     0.000344     0.001800     YES
 RMS     Displacement     0.000135     0.001200     YES
 Predicted change in Energy=-3.168601D-09
 Optimization completed.
    -- Stationary point found.
                           ----------------------------
                           !   Optimized Parameters   !
                           ! (Angstroms and Degrees)  !
 --------------------------                            --------------------------
 ! Name  Definition              Value          Derivative Info.                !
 --------------------------------------------------------------------------------
 ! R1    R(1,2)                  1.5467         -DE/DX =    0.0                 !
 ! R2    R(1,4)                  1.0857         -DE/DX =    0.0                 !
 ! R3    R(1,5)                  1.0856         -DE/DX =    0.0                 !
 ! R4    R(1,6)                  1.0859         -DE/DX =    0.0                 !
 ! R5    R(2,3)                  1.4376         -DE/DX =    0.0                 !
 ! R6    R(2,7)                  1.0943         -DE/DX =    0.0                 !
 ! R7    R(2,8)                  1.0964         -DE/DX =    0.0                 !
 ! R8    R(3,9)                  1.0668         -DE/DX =    0.0                 !
 ! R9    R(9,10)                 1.1            -DE/DX =    0.0                 !
 ! A1    A(2,1,4)              109.9306         -DE/DX =    0.0                 !
 ! A2    A(2,1,5)              110.388          -DE/DX =    0.0                 !
 ! A3    A(2,1,6)              110.8939         -DE/DX =    0.0                 !
 ! A4    A(4,1,5)              108.6537         -DE/DX =    0.0                 !
 ! A5    A(4,1,6)              108.4105         -DE/DX =    0.0                 !
 ! A6    A(5,1,6)              108.5024         -DE/DX =    0.0                 !
 ! A7    A(1,2,3)              113.4705         -DE/DX =    0.0                 !
 ! A8    A(1,2,7)              109.2034         -DE/DX =    0.0                 !
 ! A9    A(1,2,8)              109.576          -DE/DX =    0.0                 !
 ! A10   A(3,2,7)              105.7904         -DE/DX =    0.0                 !
 ! A11   A(3,2,8)              111.2242         -DE/DX =    0.0                 !
 ! A12   A(7,2,8)              107.3185         -DE/DX =    0.0                 !
 ! A13   A(2,3,9)              104.2468         -DE/DX =    0.0                 !
 ! A14   A(3,9,10)             175.7932         -DE/DX =    0.0                 !
 ! D1    D(4,1,2,3)           -174.966          -DE/DX =    0.0                 !
 ! D2    D(4,1,2,7)            -57.2314         -DE/DX =    0.0                 !
 ! D3    D(4,1,2,8)             60.0539         -DE/DX =    0.0                 !
 ! D4    D(5,1,2,3)            -55.1165         -DE/DX =    0.0                 !
 ! D5    D(5,1,2,7)             62.6182         -DE/DX =    0.0                 !
 ! D6    D(5,1,2,8)            179.9035         -DE/DX =    0.0                 !
 ! D7    D(6,1,2,3)             65.1657         -DE/DX =    0.0                 !
 ! D8    D(6,1,2,7)           -177.0997         -DE/DX =    0.0                 !
 ! D9    D(6,1,2,8)            -59.8143         -DE/DX =    0.0                 !
 ! D10   D(1,2,3,9)            -66.7206         -DE/DX =    0.0                 !
 ! D11   D(7,2,3,9)            173.5806         -DE/DX =    0.0                 !
 ! D12   D(8,2,3,9)             57.3686         -DE/DX =    0.0                 !
 ! D13   D(2,3,9,10)           -16.4667         -DE/DX =    0.0                 !
 --------------------------------------------------------------------------------
 GradGradGradGradGradGradGradGradGradGradGradGradGradGradGradGradGradGrad

 Leave Link  103 at Thu Jan 24 17:07:06 2019, MaxMem=  134217728 cpu:       0.0
 (Enter /home/programs/G09_64/g09/l9999.exe)
 1\1\GINC-AF2CIQUS\Freq\UHF\STO-3G\C2H7O1(2)\RAMOS\24-Jan-2019\0\\#P Ge
 om=AllCheck Guess=TCheck SCRF=Check GenChk UHF/STO-3G Freq\\---\\0,2\C
 ,1.2807341535,0.341221247,-0.0826418932\C,0.0365004682,-0.50610501,0.2
 727166487\O,-1.1858571591,0.0126672602,-0.2780930773\H,2.1782151686,-0
 .1470453026,0.2846331623\H,1.3643346958,0.457526166,-1.1587866443\H,1.
 2186629884,1.3278196302,0.3668153466\H,0.1514138844,-1.5090681213,-0.1
 497029214\H,-0.0340692383,-0.6165368272,1.3612590208\H,-1.3330700157,0
 .9369099343,0.2338828027\H,-1.4312035633,1.8646872782,0.8166003327\\Ve
 rsion=AM64L-G09RevB.01\HF=-152.5856639\S2=0.788411\S2-1=0.\S2A=0.75006
 8\RMSD=9.541e-10\RMSF=3.485e-06\ZeroPoint=0.0920174\Thermal=0.0966809\
 Dipole=0.3892514,0.1356541,0.3406522\DipoleDeriv=-0.081083,0.0609595,-
 0.0246325,0.0202806,-0.0645445,0.0045025,-0.0182255,0.0460686,-0.04893
 61,0.4889322,-0.1424415,-0.1270515,0.0059417,0.2722783,-0.0502656,-0.0
 229837,-0.1219281,0.2064091,-0.3457269,-0.1305722,0.0398943,-0.2028918
 ,0.3521593,0.3960664,-0.0178829,0.4125044,-0.1323721,-0.0377397,0.0322
 234,-0.0150999,-0.0130541,0.0399453,0.0197685,-0.003721,0.0123128,0.03
 44784,0.0163974,-0.0250097,0.0226268,-0.0256068,0.0302214,0.0194351,0.
 0043375,0.0110921,-0.0202379,0.0025249,-0.0014288,0.019873,-0.0131246,
 -0.0299433,-0.0217315,0.0199044,-0.0255194,0.020624,-0.0406947,0.01616
 02,0.0074045,-0.0052499,-0.0284658,-0.0166759,-0.0157989,0.006316,0.02
 82371,-0.0933935,0.0372543,0.0586244,-0.0028209,-0.0051267,0.0083175,-
 0.0117291,0.0517434,-0.0637155,0.0738539,0.2188742,0.0503281,0.3736176
 ,-0.9613813,-0.5436323,0.1493737,-0.6284769,-0.1278015,0.0169293,-0.06
 60194,-0.0319672,-0.1370918,0.3948572,0.1842153,-0.0832746,0.2358871,0
 .1033145\Polar=15.0334391,-4.7840079,22.0625555,-1.0678538,4.4286063,1
 3.4231258\PolarDeriv=0.6397321,1.9661547,-0.286823,-1.470704,0.0601114
 ,-0.3261084,2.4515802,0.1795201,-1.3013422,-0.2117033,-0.9900525,-0.31
 18924,-1.3283637,0.1371623,-1.5407913,-0.4889201,-0.7268169,2.3616151,
 0.668436,-2.3068883,0.736638,1.5297218,0.2539386,0.5862694,-2.5693921,
 -0.7230858,2.1613745,0.1176522,0.6823032,-0.0754639,2.3482813,-0.60004
 92,0.8389229,0.2963718,0.989264,-2.443021,-4.6902641,-1.6033653,3.3360
 439,-3.2092559,1.7222302,0.7272583,-0.8720883,2.1359497,-12.7382735,1.
 6262139,-6.3940019,-2.1102908,-2.0035377,2.104876,-4.2159266,-1.154737
 5,-3.2546965,-4.0418782,5.479797,-1.6370346,0.0174197,1.0284898,-0.069
 4397,0.0887083,-0.573528,1.9287516,-1.7652843,0.0054196,0.7920752,-0.0
 838578,0.4976487,-0.0792071,0.3411182,2.1074993,-0.8252836,0.8742185,0
 .8638425,-0.0800765,0.0223979,-2.1477343,-0.0492792,0.3439958,-0.38831
 94,0.3887733,0.8510306,-0.2341179,-1.8988721,0.3627382,-0.1386123,-0.1
 258334,-0.0110775,0.9461658,0.5754733,-5.5440617,0.2336811,1.6145782,0
 .1132165,1.0810799,-0.0180374,0.0014583,-0.1490276,0.6085096,4.243765,
 0.1514844,0.8643263,0.1292575,0.4343677,0.0365629,0.3788996,0.2601511,
 1.9351745,1.0688695,0.3258322,-2.0835511,0.1974502,-1.1510058,0.247525
 ,0.0720558,0.184856,0.4897239,-7.0171442,0.0087637,-1.5203645,-0.24033
 73,-0.6185182,0.2377172,-0.6470193,0.2287988,-2.4995572,-1.2994075,-0.
 3609435,-0.3224019,-0.514395,2.3374286,-0.2560155,-0.4649029,0.3844651
 ,-0.0020065,-1.752898,0.0808866,1.9493613,-0.3180764,-0.004597,0.02252
 68,0.1570766,-0.0976192,-1.7731802,5.1508972,-1.6530637,2.5504773,-4.7
 777198,1.1394926,-2.5115394,-1.3377083,2.1682319,-6.6952091,21.8914534
 ,-2.8308937,10.1364382,5.0282314,1.2630198,-3.2808138,10.1476171,-2.10
 27952,6.2280549,3.2705618,-1.5070494,1.9021074,1.1557716,0.8624872,0.6
 205061,0.3089736,-0.6367779,1.6890732,-4.5726812,1.2862944,-3.6212133,
 -2.3803084,-0.4496884,1.5470584,-5.4488197,0.0050851,-0.6484323,0.6022
 064\HyperPolar=7.985121,5.9944243,-31.6008139,107.8352024,8.7743651,-1
 7.6445997,56.5781107,-5.5011751,26.3832362,13.9390947\PG=C01 [X(C2H7O1
 )]\NImag=1\\0.76036601,-0.06654123,0.81914490,0.03061478,0.01608809,0.
 85686431,-0.22383897,-0.08559290,0.03826451,0.70519963,-0.08707146,-0.
 18381576,0.02406161,-0.03394147,0.81642879,0.04411558,0.02388309,-0.13
 664261,0.01316385,0.04902662,0.84176328,-0.04695841,0.01771108,-0.0178
 7636,-0.30592089,0.06717363,-0.13525168,0.41127315,-0.01388578,0.01513
 841,-0.01025509,0.13215101,-0.14487254,0.04551356,-0.14993914,0.325936
 72,-0.00206870,-0.00176490,0.00759695,-0.08698439,-0.00296661,-0.14133
 651,0.15377379,0.06745359,0.22219179,-0.33736087,0.14830307,-0.1094161
 5,-0.02285329,0.01825390,-0.01280810,-0.00445850,-0.00430374,0.0011371
 3,0.34955257,0.14525503,-0.15666765,0.05828215,-0.02242331,0.01372599,
 -0.01031198,-0.00580411,-0.00321018,0.00024085,-0.15321855,0.15515221,
 -0.10814944,0.05854600,-0.12370119,0.01077269,-0.00657509,0.00397808,0
 .00243113,0.00138566,0.00070071,0.11518658,-0.06395934,0.11648206,-0.0
 7832743,0.00018117,0.02785345,-0.00086202,-0.00313759,0.04002196,0.003
 83245,0.00146347,-0.00104975,0.00804228,0.00088806,-0.03950656,0.07241
 781,-0.00055689,-0.08379182,0.03897609,0.00032372,-0.00203310,0.027069
 22,0.00161583,0.00076721,-0.00113990,-0.00501912,-0.00075260,0.0207951
 0,0.00474156,0.07567101,0.02568511,0.03748018,-0.45977232,-0.00082105,
 -0.00073508,-0.00251667,-0.00104261,-0.00063156,0.00043543,0.00669589,
 -0.00301904,-0.00638577,-0.02988565,-0.04215945,0.47571291,-0.07832006
 ,0.02269540,0.00802737,0.00499087,-0.03640345,-0.01801757,0.00293074,0
 .00015778,0.00017234,0.00281657,0.03370065,0.02014911,-0.00058954,0.00
 243879,-0.00021191,0.07367024,0.02527618,-0.39355060,-0.14584019,0.004
 12786,-0.01729062,-0.00923286,0.00154571,0.00053729,0.00015494,-0.0054
 1587,-0.01074530,-0.00970899,-0.00092975,0.01072079,0.00870851,-0.0223
 5182,0.40803692,0.00978242,-0.14485809,-0.14807399,-0.00171281,0.01435
 279,0.00648696,-0.00036923,-0.00027871,-0.00034303,-0.00083585,0.01866
 519,0.00848556,0.00321906,-0.04352263,-0.00943309,-0.01225543,0.154744
 15,0.14159327,0.00426813,-0.03534899,-0.01604270,-0.07489505,0.0304508
 0,0.01405815,-0.00554762,0.03741343,0.01599683,0.00196571,0.00089609,-
 0.00027748,0.00137993,0.00122530,-0.00031323,-0.00606958,-0.00315032,0
 .00298381,0.08439699,0.00284372,-0.01685765,-0.01011704,0.03196716,-0.
 38293035,-0.13515265,0.00732479,-0.01451275,-0.00472089,0.00063089,0.0
 0125416,-0.00001034,0.00137370,0.00135371,-0.00015530,-0.00293844,-0.0
 0028935,0.00123039,-0.04069380,0.40188385,0.00002376,0.01424456,0.0068
 5856,0.01506517,-0.13328616,-0.14212498,-0.00098125,0.01706813,0.01114
 750,-0.00033250,-0.00038178,0.00010914,-0.00092586,-0.00011418,0.00087
 857,0.00245290,0.00125922,0.00015122,-0.01484200,0.13976395,0.13226361
 ,-0.00082370,-0.00269029,0.03803684,-0.07340327,-0.00171444,0.02996771
 ,-0.00896928,0.00605418,-0.04802460,0.00203484,0.00090921,-0.00058947,
 -0.00575262,-0.00465928,-0.00009875,0.00136231,0.00097138,-0.00084929,
 0.00126239,-0.00192768,0.00349953,0.08283146,-0.00424778,-0.00043600,0
 .02740913,-0.00522433,-0.08599147,0.02925708,0.00784576,0.00046922,0.0
 2054162,0.00064565,0.00040857,-0.00053740,-0.00438452,-0.00187774,0.00
 017502,0.00169376,0.00152860,-0.00008719,0.00335893,0.00928436,-0.0418
 8790,0.00180926,0.07587405,-0.00095781,-0.00239408,-0.00359476,0.03275
 217,0.02753449,-0.43261077,-0.00935874,0.00282086,-0.01399266,0.000083
 06,-0.00017786,0.00047831,0.00022659,0.00018599,0.00112032,-0.00073825
 ,-0.00029366,0.00090345,0.00124937,0.00749693,-0.00928481,-0.02374460,
 -0.03596384,0.45383569,0.00138574,0.00121877,0.00032252,-0.00737911,0.
 04576226,0.02457630,-0.04849461,-0.02291107,-0.03983697,0.00023194,-0.
 00041983,-0.00008145,-0.00014833,-0.00008779,-0.00003089,-0.00049674,-
 0.00049181,-0.00010063,-0.00704431,0.00155204,-0.00408792,0.00117966,-
 0.00138456,0.00023502,0.06833201,-0.00061580,-0.00016467,0.00234301,-0
 .02873152,-0.01112372,-0.02296555,0.03097845,-0.06112203,-0.00918875,0
 .00053356,0.00152009,-0.00001448,-0.00025986,-0.00006009,0.00045888,0.
 00128707,0.00147723,-0.00023028,0.00767990,0.00088473,0.00407266,0.003
 07917,0.00054084,0.00209769,0.00342826,-0.06177480,0.00099077,-0.00166
 744,0.00104435,-0.02511219,0.02857121,0.00121026,-0.00390023,-0.045013
 11,-0.04876790,0.00049244,0.00107439,-0.00019447,0.00003616,-0.0000869
 0,0.00003703,0.00056971,0.00052978,0.00018765,-0.00173591,0.00185261,0
 .00055159,0.00299214,0.00084280,0.00362179,0.03560161,-0.06330449,0.00
 548825,-0.00039045,0.00006391,0.00021574,-0.00103791,0.00062782,0.0001
 7381,0.00231298,0.01379984,0.00688433,0.00002875,0.00021676,0.00006490
 ,0.00000748,-0.00002210,0.00002310,-0.00029481,0.00041845,0.00013794,0
 .00028341,-0.00013237,0.00012818,0.00027822,-0.00011218,0.00025318,-0.
 00756626,-0.01737924,-0.00993449,0.00637860,-0.00045598,0.00100085,-0.
 00094776,0.00734377,-0.00209722,0.00291348,0.02154800,-0.11913135,-0.0
 6860995,-0.00040980,-0.00068530,0.00007888,0.00006375,0.00000262,-0.00
 012216,-0.00027973,-0.00042496,-0.00001563,-0.00183135,-0.00007072,-0.
 00073850,-0.00183151,0.00019957,-0.00130653,-0.02666626,0.12982242,0.0
 7720114,0.00251910,-0.00861592,-0.00003647,0.00044259,-0.00057928,0.00
 461206,0.00001622,0.00179296,0.01257518,-0.07806333,-0.03763226,-0.000
 20250,-0.00041257,0.00004757,0.00001060,-0.00000334,-0.00007640,-0.000
 14827,-0.00032089,0.00004201,-0.00107684,-0.00018767,-0.00055038,-0.00
 118948,0.00025066,-0.00047655,-0.01659760,0.08673130,0.03682146,0.0020
 5332,-0.00845296,0.00061088\\0.00000122,0.00000258,0.00000103,-0.00000
 179,-0.00000498,-0.00000275,-0.00000784,0.00000344,0.00000357,-0.00000
 023,-0.00000051,-0.00000021,0.00000021,-0.00000042,-0.00000008,0.00000
 016,-0.00000023,0.00000005,0.00000245,-0.00000009,0.00000026,0.0000004
 9,0.00000045,0.00000040,0.00001032,0.00000574,0.00000231,-0.00000500,-
 0.00000596,-0.00000458\\\@


 WE MIGHT AS WELL ATTEMPT TO INTRODUCE A NEW PLANET 
 INTO THE SOLAR SYSTEM, OR TO ANNIHILATE ONE ALREADYIN EXISTENCE, 
 AS TO CREATE OR DESTROY A PARTICLE OF HYDROGEN.
 ALL THE CHANGES WE CAN PRODUCE CONSIST IN SEPARATING PARTICLES
 THAT ARE IN A STATE OF ... COMBINATION, AND JOINING 
 THOSE THAT WERE PREVIOUSLY AT A DISTANCE.

                                    -- JOHN DALTON, 1810
 Job cpu time:  0 days  0 hours  0 minutes  2.1 seconds.
 File lengths (MBytes):  RWF=      5 Int=      0 D2E=      0 Chk=      1 Scr=      1
 Normal termination of Gaussian 09 at Thu Jan 24 17:07:06 2019.
