[Molden Format]
[FR-COORD] # Coordinates in bohr
  H    +0.000000    +0.000000    -0.672966 
  H    +0.000000    +0.000000    +0.672966 
[FREQ] # Frequencies in cm^-1
 5481.1264
[FR-NORM-COORD] # Displacements in bohr
vibration  1
      +0.000     +0.000     -0.707
      +0.000     +0.000     +0.707
