[Molden Format]
[FR-COORD] # Coordinates in bohr
  C    +0.067737    +1.032872    +0.111417 
  C    -2.408601    -0.512969    +0.003098 
  O    +2.308229    -0.505507    -0.112138 
  H    -4.026840    +0.736431    +0.179716 
  H    -2.550567    -1.519801    -1.778957 
  H    -2.469121    -1.882079    +1.530007 
  H    +0.101958    +2.430397    -1.414765 
  H    +0.183582    +2.067416    +1.900206 
[FREQ] # Frequencies in cm^-1
  209.9322
  448.4512
  469.7116
 1013.2456
 1065.5125
 1265.2848
 1295.2628
 1479.3565
 1659.4040
 1729.7244
 1771.0713
 1822.7410
 1832.5419
 3562.1204
 3571.3468
 3673.6296
 3755.6171
 3758.1098
[FR-NORM-COORD] # Displacements in bohr
vibration  1
      +0.008     -0.034     +0.313
      -0.001     +0.003     -0.025
      -0.007     +0.030     -0.275
      -0.013     +0.059     -0.542
      +0.302     -0.359     +0.172
      -0.292     +0.312     +0.260
      +0.042     +0.005     +0.106
      -0.037     -0.028     +0.105
vibration  2
      +0.015     +0.430     +0.045
      +0.430     -0.086     -0.020
      -0.539     -0.271     -0.016
      -0.037     -0.234     -0.025
      +0.289     -0.047     -0.007
      +0.289     -0.045     -0.017
      +0.036     +0.113     +0.004
      +0.038     +0.108     +0.020
vibration  3
      +0.010     -0.042     +0.394
      +0.001     +0.004     -0.035
      -0.006     +0.018     -0.177
      +0.002     -0.009     +0.077
      +0.031     +0.122     -0.079
      -0.034     -0.102     -0.102
      +0.312     -0.454     -0.276
      -0.322     +0.502     -0.156
vibration  4
      -0.000     +0.002     -0.014
      -0.005     +0.021     -0.190
      -0.000     +0.002     -0.020
      +0.005     -0.024     +0.214
      -0.354     -0.293     +0.145
      +0.362     +0.257     +0.187
      +0.442     +0.124     +0.123
      -0.436     -0.150     +0.115
vibration  5
      -0.082     -0.380     -0.040
      +0.506     +0.047     -0.007
      -0.370     +0.211     +0.032
      +0.431     +0.367     +0.030
      -0.079     +0.083     -0.016
      -0.078     +0.077     +0.038
      -0.132     -0.109     -0.007
      -0.132     -0.108     -0.010
vibration  6
      +0.488     +0.239     +0.014
      -0.146     -0.433     -0.044
      -0.274     +0.136     +0.022
      +0.167     +0.149     +0.012
      -0.340     -0.088     -0.019
      -0.339     -0.091     +0.016
      +0.212     +0.079     +0.001
      +0.212     +0.079     +0.006
vibration  7
      -0.240     +0.429     +0.053
      +0.124     -0.184     -0.023
      +0.319     -0.344     -0.046
      +0.245     +0.216     +0.018
      -0.207     +0.014     -0.026
      -0.205     +0.007     +0.038
      -0.352     +0.143     +0.026
      -0.352     +0.143     +0.022
vibration  8
      +0.008     -0.035     +0.321
      -0.009     +0.041     -0.377
      +0.000     -0.001     +0.009
      +0.003     -0.016     +0.142
      -0.276     -0.240     +0.049
      +0.279     +0.225     +0.086
      -0.437     -0.183     -0.070
      +0.434     +0.196     -0.050
vibration  9
      +0.556     -0.111     -0.026
      -0.012     +0.178     +0.020
      -0.137     +0.033     +0.007
      -0.213     -0.212     -0.018
      -0.067     -0.112     +0.102
      -0.072     -0.087     -0.120
      -0.489     +0.022     +0.031
      -0.490     +0.025     -0.002
vibration  10
      -0.215     +0.041     +0.010
      +0.422     +0.188     +0.010
      +0.037     -0.004     -0.001
      -0.237     -0.405     -0.038
      -0.443     -0.083     +0.126
      -0.449     -0.056     -0.119
      +0.132     -0.108     -0.100
      +0.136     -0.126     +0.068
vibration  11
      -0.098     -0.279     -0.028
      +0.087     +0.063     +0.005
      +0.005     -0.008     -0.001
      -0.016     -0.040     -0.004
      -0.062     -0.093     +0.069
      -0.066     -0.076     -0.085
      +0.092     +0.447     +0.473
      +0.072     +0.539     -0.369
vibration  12
      +0.001     -0.005     +0.048
      +0.005     -0.021     +0.194
      -0.000     +0.001     -0.007
      -0.017     +0.078     -0.710
      -0.437     +0.181     -0.020
      +0.435     -0.170     -0.080
      +0.000     -0.022     -0.001
      -0.000     +0.022     +0.004
vibration  13
      -0.085     +0.081     +0.011
      -0.067     +0.177     +0.021
      +0.021     -0.010     -0.002
      +0.166     +0.280     +0.027
      +0.097     -0.542     +0.328
      +0.078     -0.457     -0.442
      +0.047     -0.058     -0.072
      +0.051     -0.072     +0.056
vibration  14
      -0.019     -0.237     -0.025
      -0.010     +0.004     +0.001
      +0.001     -0.001     -0.000
      +0.047     -0.040     -0.006
      +0.006     +0.022     +0.033
      +0.004     +0.029     -0.028
      +0.005     +0.459     -0.508
      +0.032     +0.338     +0.594
vibration  15
      -0.009     -0.026     -0.003
      +0.155     +0.093     +0.006
      -0.001     +0.000     +0.000
      -0.449     +0.351     +0.049
      -0.035     -0.274     -0.490
      -0.013     -0.374     +0.420
      -0.002     +0.036     -0.042
      +0.000     +0.026     +0.049
vibration  16
      +0.008     -0.035     +0.316
      -0.001     +0.002     -0.023
      -0.000     +0.000     -0.002
      -0.000     +0.000     -0.001
      -0.001     +0.020     +0.038
      +0.003     -0.028     +0.033
      +0.013     +0.449     -0.496
      -0.039     -0.331     -0.580
vibration  17
      +0.001     +0.004     +0.000
      -0.165     +0.268     +0.034
      +0.001     -0.000     -0.000
      +0.604     -0.470     -0.066
      -0.028     -0.189     -0.344
      -0.012     -0.258     +0.295
      -0.002     -0.010     +0.008
      -0.002     -0.008     -0.010
vibration  18
      +0.000     -0.002     +0.019
      +0.008     -0.035     +0.313
      -0.000     +0.000     -0.000
      -0.001     +0.000     +0.005
      -0.043     -0.329     -0.581
      +0.016     +0.447     -0.498
      +0.006     +0.030     -0.032
      -0.008     -0.022     -0.037
