[Molden Format]
[FR-COORD] # Coordinates in bohr
  C    +2.576279    -0.299935    -0.000706 
  C    -0.004043    +1.056565    -0.001303 
  O    -1.950592    -0.841188    +0.002117 
  H    +4.096345    +1.078186    -0.002580 
  H    +2.760008    -1.482020    +1.666044 
  H    +2.758989    -1.485438    -1.665134 
  H    -0.144674    +2.276831    +1.667820 
  H    -0.146236    +2.272308    -1.673584 
  H    -3.664459    +0.218493    -0.000031 
  H    -5.329855    +1.462839    -0.002220 
[FREQ] # Frequencies in cm^-1
 -2524.5155
  151.8613
  226.6803
  348.6015
  483.5600
  887.9920
  958.5332
 1076.3020
 1237.7927
 1342.4378
 1344.1469
 1506.4092
 1564.7304
 1697.0712
 1753.3791
 1819.5924
 1823.5244
 1844.2986
 1974.8648
 3547.0375
 3574.1092
 3659.0776
 3758.7309
 3760.7695
[FR-NORM-COORD] # Displacements in bohr
vibration  1
      -0.000     -0.009     +0.000
      +0.019     +0.029     -0.000
      +0.024     -0.030     +0.000
      -0.006     +0.003     +0.000
      +0.003     -0.000     +0.002
      +0.003     -0.000     -0.002
      -0.006     -0.008     +0.003
      -0.006     -0.008     -0.003
      -0.654     +0.428     -0.001
      +0.505     -0.364     +0.001
vibration  2
      +0.000     +0.000     +0.216
      -0.000     -0.000     -0.211
      +0.000     -0.001     -0.303
      -0.000     +0.000     +0.015
      -0.034     +0.094     +0.133
      +0.034     -0.094     +0.133
      -0.048     +0.040     -0.096
      +0.048     -0.040     -0.096
      -0.000     +0.001     +0.296
      +0.000     +0.002     +0.805
vibration  3
      +0.000     -0.000     +0.026
      -0.000     -0.000     -0.257
      +0.000     +0.000     +0.211
      +0.000     +0.001     +0.558
      -0.270     -0.367     -0.223
      +0.270     +0.367     -0.224
      +0.004     +0.089     -0.139
      -0.004     -0.089     -0.139
      -0.000     +0.000     +0.054
      -0.000     -0.000     +0.070
vibration  4
      -0.196     -0.203     +0.000
      +0.060     +0.285     -0.000
      +0.277     +0.164     -0.001
      +0.055     -0.183     +0.000
      -0.159     -0.078     -0.002
      -0.159     -0.078     +0.002
      +0.036     +0.079     +0.005
      +0.036     +0.079     -0.005
      -0.018     -0.103     +0.000
      -0.425     -0.653     +0.001
vibration  5
      +0.397     +0.045     -0.000
      +0.119     -0.287     +0.000
      -0.479     +0.231     -0.000
      -0.012     +0.156     -0.000
      +0.236     +0.037     +0.004
      +0.236     +0.037     -0.004
      +0.078     -0.070     -0.005
      +0.078     -0.070     +0.005
      -0.078     +0.146     -0.000
      -0.412     -0.321     +0.001
vibration  6
      +0.000     +0.000     +0.016
      +0.000     +0.000     +0.093
      -0.000     +0.000     +0.094
      +0.000     -0.000     -0.048
      +0.092     -0.059     -0.047
      -0.092     +0.059     -0.047
      -0.052     +0.116     -0.060
      +0.052     -0.116     -0.060
      +0.000     -0.002     -0.875
      +0.000     +0.001     +0.383
vibration  7
      +0.000     +0.000     +0.139
      +0.000     +0.000     +0.227
      +0.000     -0.000     -0.131
      -0.000     -0.000     -0.168
      +0.339     -0.226     -0.158
      -0.339     +0.225     -0.159
      -0.238     +0.342     -0.207
      +0.237     -0.342     -0.206
      +0.000     +0.001     +0.247
      -0.000     -0.000     -0.092
vibration  8
      +0.487     +0.026     -0.000
      -0.094     +0.354     -0.000
      -0.290     -0.241     +0.000
      +0.478     -0.355     +0.000
      -0.106     -0.083     -0.030
      -0.106     -0.083     +0.030
      -0.169     +0.093     -0.001
      -0.169     +0.093     +0.000
      -0.098     -0.073     +0.000
      -0.032     +0.058     -0.000
vibration  9
      -0.196     +0.434     -0.001
      +0.455     -0.250     +0.000
      -0.149     -0.160     +0.000
      +0.189     -0.154     +0.000
      -0.370     +0.060     -0.021
      -0.370     +0.060     +0.021
      +0.111     -0.090     -0.002
      +0.111     -0.090     +0.002
      +0.105     +0.239     -0.000
      -0.075     -0.023     +0.000
vibration  10
      +0.002     +0.000     -0.243
      -0.004     -0.004     +0.445
      +0.004     +0.004     -0.184
      +0.002     -0.001     +0.141
      -0.231     +0.162     +0.070
      +0.228     -0.162     +0.070
      +0.296     +0.391     -0.126
      -0.306     -0.395     -0.125
      +0.002     +0.003     +0.019
      +0.000     -0.001     -0.010
vibration  11
      +0.135     +0.072     +0.003
      -0.321     -0.398     -0.005
      +0.297     +0.368     +0.002
      +0.179     -0.133     -0.002
      -0.095     -0.042     -0.027
      -0.101     -0.038     +0.025
      -0.374     -0.151     +0.002
      -0.367     -0.142     +0.002
      +0.191     +0.242     -0.001
      +0.024     -0.073     +0.000
vibration  12
      +0.000     +0.000     +0.321
      -0.000     -0.000     -0.175
      -0.000     -0.000     -0.074
      +0.000     -0.000     -0.112
      +0.238     -0.178     -0.053
      -0.238     +0.178     -0.053
      +0.577     -0.017     +0.009
      -0.577     +0.017     +0.010
      -0.000     -0.000     -0.010
      +0.000     +0.000     -0.002
vibration  13
      -0.096     -0.188     +0.000
      +0.256     +0.271     -0.001
      -0.035     -0.292     +0.001
      -0.171     +0.102     -0.000
      +0.125     +0.032     +0.047
      +0.125     +0.032     -0.047
      -0.315     +0.059     -0.015
      -0.315     +0.059     +0.015
      +0.295     +0.579     -0.001
      -0.155     +0.010     -0.000
vibration  14
      -0.244     +0.176     -0.000
      -0.316     +0.011     +0.000
      +0.049     -0.112     +0.000
      +0.279     -0.332     +0.000
      +0.332     -0.100     -0.150
      +0.332     -0.100     +0.150
      +0.285     +0.030     +0.012
      +0.285     +0.030     -0.013
      +0.225     +0.322     -0.001
      -0.001     -0.050     +0.000
vibration  15
      +0.363     -0.111     +0.000
      -0.413     +0.041     +0.000
      +0.045     -0.125     +0.000
      -0.174     +0.278     -0.000
      -0.316     -0.011     +0.065
      -0.316     -0.011     -0.065
      +0.288     +0.100     -0.026
      +0.288     +0.100     +0.026
      +0.230     +0.328     -0.001
      -0.002     -0.045     +0.000
vibration  16
      -0.000     -0.000     -0.195
      +0.000     -0.000     -0.046
      +0.000     -0.000     +0.004
      +0.000     +0.001     +0.715
      +0.422     +0.209     +0.051
      -0.422     -0.209     +0.052
      +0.012     -0.020     -0.002
      -0.012     +0.020     -0.002
      +0.000     +0.000     +0.001
      -0.000     +0.000     +0.000
vibration  17
      -0.011     -0.166     +0.000
      -0.114     +0.136     -0.000
      +0.032     -0.010     +0.000
      +0.138     -0.194     +0.000
      +0.025     +0.422     +0.326
      +0.024     +0.421     -0.327
      +0.085     -0.294     +0.246
      +0.085     -0.294     -0.245
      -0.007     +0.049     -0.000
      -0.046     +0.031     -0.000
vibration  18
      -0.057     -0.092     +0.000
      -0.003     -0.262     +0.000
      -0.040     +0.033     -0.000
      +0.122     -0.178     +0.000
      +0.039     +0.293     +0.219
      +0.039     +0.292     -0.220
      -0.015     +0.405     -0.347
      -0.015     +0.406     +0.346
      +0.081     -0.044     +0.000
      +0.115     -0.086     +0.000
vibration  19
      +0.003     -0.013     +0.000
      +0.076     +0.122     -0.000
      -0.327     +0.102     -0.000
      -0.027     +0.028     +0.000
      +0.005     -0.015     -0.009
      +0.005     -0.015     +0.009
      -0.026     -0.076     +0.084
      -0.026     -0.076     -0.083
      +0.539     -0.198     +0.001
      +0.564     -0.429     +0.001
vibration  20
      -0.002     -0.008     +0.000
      -0.033     +0.237     -0.000
      -0.002     +0.001     -0.000
      +0.024     +0.026     -0.000
      +0.005     -0.011     +0.011
      +0.005     -0.011     -0.011
      +0.043     -0.398     -0.557
      +0.044     -0.396     +0.558
      +0.011     -0.006     +0.000
      -0.000     -0.001     +0.000
vibration  21
      +0.162     -0.082     +0.000
      -0.010     +0.014     -0.000
      -0.001     -0.000     +0.000
      -0.424     -0.388     +0.001
      -0.047     +0.324     -0.459
      -0.047     +0.324     +0.459
      -0.001     -0.013     -0.021
      -0.001     -0.013     +0.021
      +0.000     +0.000     +0.000
      +0.000     -0.000     +0.000
vibration  22
      -0.000     -0.000     -0.021
      +0.000     +0.000     +0.317
      +0.000     +0.000     -0.000
      +0.000     -0.000     -0.002
      -0.001     -0.022     +0.033
      +0.001     +0.022     +0.033
      +0.047     -0.393     -0.540
      -0.048     +0.391     -0.541
      -0.000     -0.000     -0.003
      -0.000     +0.000     -0.000
vibration  23
      +0.145     +0.281     -0.001
      -0.001     +0.004     -0.000
      -0.002     +0.000     +0.000
      -0.568     -0.519     +0.001
      +0.036     -0.223     +0.323
      +0.035     -0.223     -0.320
      +0.003     -0.009     -0.008
      +0.003     -0.009     +0.009
      +0.001     -0.002     +0.000
      +0.000     -0.000     +0.000
vibration  24
      -0.000     -0.001     -0.316
      -0.000     -0.000     -0.017
      +0.000     -0.000     +0.000
      +0.001     +0.001     -0.004
      +0.057     -0.386     +0.543
      -0.056     +0.388     +0.544
      -0.007     +0.024     +0.032
      +0.007     -0.024     +0.032
      +0.000     +0.000     +0.000
      +0.000     +0.000     +0.000
