[Molden Format]
[FR-COORD] # Coordinates in bohr
  C    +2.009078    -1.217778    -0.000008 
  C    +0.174429    +1.029308    -0.000005 
  O    -2.364853    +0.061895    +0.000013 
  H    +4.282791    -0.330123    -0.000006 
  H    +1.857579    -2.369195    +1.691373 
  H    +1.857581    -2.369190    -1.691392 
  H    +0.523599    +2.207656    +1.670200 
  H    +0.523580    +2.207646    -1.670221 
  H    -3.430733    +1.601694    +0.000008 
  H    +5.918880    +0.313279    -0.000004 
[FREQ] # Frequencies in cm^-1
 -2763.1030
  136.0048
  334.9330
  340.8615
  507.3926
  710.3616
  970.2382
 1141.4760
 1229.1049
 1337.1454
 1343.7120
 1507.5831
 1529.5839
 1574.4105
 1591.1933
 1734.5147
 1783.7121
 1803.4307
 1839.9491
 3540.9058
 3624.4256
 3652.3368
 3767.4270
 4227.3534
[FR-NORM-COORD] # Displacements in bohr
vibration  1
      -0.201     -0.072     -0.000
      +0.015     +0.011     -0.000
      -0.001     -0.003     +0.000
      +0.844     +0.331     +0.000
      +0.063     +0.009     +0.024
      +0.063     +0.009     -0.024
      +0.001     +0.001     +0.001
      +0.001     +0.001     -0.001
      +0.003     +0.001     -0.000
      -0.328     -0.128     -0.000
vibration  2
      +0.000     -0.000     +0.180
      +0.000     +0.000     +0.317
      -0.000     -0.000     -0.343
      +0.000     +0.000     -0.319
      +0.214     +0.122     +0.154
      -0.214     -0.122     +0.154
      -0.075     -0.084     +0.167
      +0.075     +0.084     +0.167
      +0.000     +0.000     -0.044
      +0.000     +0.000     -0.629
vibration  3
      -0.142     +0.247     +0.000
      -0.047     +0.314     +0.000
      +0.198     -0.306     +0.000
      +0.082     -0.218     -0.000
      -0.133     +0.072     -0.007
      -0.133     +0.072     +0.007
      -0.065     +0.100     +0.004
      -0.065     +0.100     -0.004
      -0.072     -0.161     -0.000
      +0.251     -0.680     -0.000
vibration  4
      -0.000     +0.000     +0.088
      -0.000     +0.000     -0.124
      +0.000     -0.000     -0.232
      +0.000     -0.000     +0.022
      -0.013     +0.053     +0.060
      +0.013     -0.053     +0.060
      -0.010     +0.004     -0.040
      +0.010     -0.004     -0.040
      +0.000     +0.000     +0.951
      +0.000     -0.000     +0.032
vibration  5
      +0.461     +0.128     -0.000
      -0.150     -0.258     +0.000
      -0.479     +0.196     +0.000
      +0.155     +0.003     -0.000
      +0.232     +0.015     -0.006
      +0.232     +0.015     +0.006
      -0.056     -0.063     -0.006
      -0.056     -0.063     +0.006
      +0.013     +0.143     +0.000
      +0.316     -0.382     -0.000
vibration  6
      +0.000     +0.000     -0.266
      -0.000     -0.000     +0.009
      -0.000     +0.000     +0.012
      +0.000     +0.000     -0.216
      +0.332     +0.350     +0.190
      -0.332     -0.350     +0.190
      +0.043     -0.118     +0.077
      -0.043     +0.118     +0.077
      -0.000     +0.000     -0.030
      +0.000     -0.000     +0.549
vibration  7
      +0.000     +0.000     -0.054
      -0.000     -0.000     -0.257
      -0.000     +0.000     +0.109
      -0.000     +0.000     +0.178
      -0.363     +0.255     +0.127
      +0.363     -0.255     +0.127
      +0.060     -0.412     +0.206
      -0.060     +0.412     +0.206
      -0.000     -0.000     -0.032
      +0.000     -0.000     -0.174
vibration  8
      -0.381     +0.402     +0.000
      +0.006     -0.492     +0.000
      +0.257     +0.051     -0.000
      -0.239     +0.294     +0.000
      +0.100     +0.137     +0.019
      +0.100     +0.137     -0.019
      +0.075     -0.176     +0.000
      +0.075     -0.176     -0.000
      +0.212     +0.107     -0.000
      -0.055     -0.217     -0.000
vibration  9
      +0.104     +0.311     -0.000
      +0.267     -0.263     -0.000
      -0.215     -0.097     +0.000
      +0.258     -0.219     +0.000
      -0.473     +0.116     -0.027
      -0.473     +0.116     +0.027
      +0.008     -0.065     -0.003
      +0.008     -0.065     +0.003
      +0.184     +0.148     -0.000
      +0.062     +0.192     -0.000
vibration  10
      -0.136     +0.076     +0.000
      +0.514     +0.179     -0.000
      -0.474     -0.217     +0.000
      -0.138     +0.102     -0.000
      +0.119     +0.049     +0.026
      +0.119     +0.049     -0.026
      +0.377     -0.022     +0.001
      +0.377     -0.022     -0.001
      -0.200     -0.089     +0.000
      -0.066     -0.083     +0.000
vibration  11
      -0.000     +0.000     -0.228
      +0.000     +0.000     +0.446
      -0.000     -0.000     -0.176
      -0.000     +0.000     +0.130
      -0.213     +0.225     +0.067
      +0.213     -0.225     +0.067
      +0.418     +0.242     -0.122
      -0.418     -0.242     -0.122
      -0.000     -0.000     -0.008
      -0.000     -0.000     -0.065
vibration  12
      -0.000     -0.000     -0.300
      +0.000     +0.000     +0.166
      -0.000     -0.000     +0.076
      -0.000     -0.000     +0.102
      -0.175     +0.233     +0.049
      +0.175     -0.233     +0.049
      -0.537     +0.239     -0.007
      +0.537     -0.239     -0.007
      +0.000     +0.000     +0.017
      -0.000     -0.000     -0.041
vibration  13
      -0.099     -0.032     +0.000
      +0.322     +0.102     -0.000
      -0.156     -0.191     +0.000
      -0.103     -0.188     -0.000
      +0.205     +0.046     +0.052
      +0.205     +0.046     -0.052
      -0.335     +0.173     -0.010
      -0.335     +0.173     +0.010
      +0.470     +0.321     -0.000
      -0.253     -0.053     +0.000
vibration  14
      +0.123     -0.235     +0.000
      +0.148     +0.078     -0.000
      -0.071     -0.060     +0.000
      -0.191     +0.755     -0.000
      -0.259     -0.053     -0.006
      -0.259     -0.053     +0.006
      -0.136     +0.100     -0.014
      -0.136     +0.100     +0.014
      +0.114     +0.083     -0.000
      +0.214     -0.152     +0.000
vibration  15
      +0.000     -0.000     -0.141
      +0.000     +0.000     -0.046
      -0.000     -0.000     +0.004
      -0.000     +0.000     +0.827
      +0.346     +0.034     +0.013
      -0.346     -0.034     +0.013
      +0.012     -0.027     +0.000
      -0.012     +0.027     +0.000
      +0.000     +0.000     +0.001
      +0.000     -0.000     -0.226
vibration  16
      +0.194     -0.100     +0.000
      +0.210     -0.191     -0.000
      +0.027     +0.192     -0.000
      -0.123     -0.018     +0.000
      -0.071     +0.323     +0.218
      -0.071     +0.323     -0.218
      -0.226     +0.014     +0.008
      -0.226     +0.014     -0.008
      -0.426     -0.263     +0.000
      -0.357     -0.152     -0.000
vibration  17
      -0.300     -0.245     -0.000
      +0.040     +0.037     -0.000
      -0.002     -0.013     +0.000
      +0.153     -0.015     +0.000
      +0.099     +0.309     +0.277
      +0.099     +0.309     -0.277
      -0.044     -0.052     +0.053
      -0.044     -0.052     -0.053
      +0.024     +0.015     -0.000
      +0.616     +0.253     +0.000
vibration  18
      +0.269     -0.189     -0.000
      -0.399     +0.177     +0.000
      +0.009     -0.136     +0.000
      -0.078     +0.002     +0.000
      -0.087     +0.274     +0.209
      -0.087     +0.274     -0.209
      +0.301     -0.022     -0.033
      +0.301     -0.022     +0.033
      +0.334     +0.201     -0.000
      -0.269     -0.121     -0.000
vibration  19
      -0.070     -0.000     -0.000
      -0.051     -0.310     +0.000
      +0.012     +0.014     -0.000
      +0.033     -0.024     -0.000
      +0.017     +0.029     +0.024
      +0.017     +0.029     -0.024
      +0.131     +0.487     -0.430
      +0.131     +0.487     +0.430
      -0.045     -0.036     +0.000
      +0.085     +0.040     +0.000
vibration  20
      +0.004     -0.010     +0.000
      +0.061     +0.231     -0.000
      +0.003     -0.003     -0.000
      -0.002     +0.001     -0.000
      +0.003     +0.000     -0.007
      +0.003     +0.000     +0.007
      -0.116     -0.383     -0.558
      -0.116     -0.383     +0.558
      -0.008     +0.010     -0.000
      -0.000     -0.000     +0.000
vibration  21
      +0.021     +0.232     +0.000
      +0.008     -0.006     -0.000
      +0.000     +0.000     -0.000
      +0.001     -0.002     +0.000
      -0.044     -0.380     +0.571
      -0.044     -0.380     -0.571
      -0.000     -0.007     -0.005
      -0.000     -0.007     +0.005
      -0.001     +0.000     +0.000
      -0.015     -0.005     -0.000
vibration  22
      -0.000     +0.000     -0.019
      +0.000     +0.000     +0.316
      +0.000     +0.000     +0.000
      +0.000     -0.000     -0.001
      -0.006     -0.017     +0.029
      +0.006     +0.017     +0.029
      -0.110     -0.380     -0.540
      +0.110     +0.380     -0.540
      +0.000     -0.000     -0.004
      -0.000     -0.000     -0.000
vibration  23
      +0.000     +0.000     -0.322
      -0.000     -0.000     -0.014
      +0.000     -0.000     +0.000
      -0.000     -0.000     +0.001
      -0.049     -0.374     +0.552
      +0.049     +0.374     +0.552
      +0.002     +0.022     +0.027
      -0.002     -0.022     +0.027
      -0.000     +0.000     +0.000
      +0.000     +0.000     -0.000
vibration  24
      -0.000     +0.001     +0.000
      -0.013     -0.013     +0.000
      +0.153     -0.191     +0.000
      +0.001     -0.000     -0.000
      -0.001     +0.001     -0.000
      -0.001     +0.001     +0.000
      -0.002     +0.005     +0.006
      -0.002     +0.005     -0.006
      -0.561     +0.791     -0.000
      -0.000     +0.000     -0.000
