-                                                                       
Freq      RHF                                                         STO-3G              
Number of atoms                            I                2
Info1-9                                    I   N=           9
           8           8        1001           0           0         100
           6           1           2
Charge                                     I                0
Multiplicity                               I                1
Number of electrons                        I                2
Number of alpha electrons                  I                1
Number of beta electrons                   I                1
Number of basis functions                  I                2
Number of independent functions            I                2
Number of point charges in /Mol/           I                0
Number of translation vectors              I                0
Atomic numbers                             I   N=           2
           1           1
Nuclear charges                            R   N=           2
  1.00000000E+00  1.00000000E+00
Current cartesian coordinates              R   N=           6
  0.00000000E+00  0.00000000E+00  2.62322829E-02  0.00000000E+00  0.00000000E+00
  1.37216506E+00
Number of symbols in /Mol/                 I                0
Force Field                                I                0
Atom Types                                 C   N=           2
                        
Int Atom Types                             I   N=           2
           0           0
MM charges                                 R   N=           2
  0.00000000E+00  0.00000000E+00
Integer atomic weights                     I   N=           2
           1           1
Real atomic weights                        R   N=           2
  1.00782504E+00  1.00782504E+00
Atom fragment info                         I   N=           2
           0           0
Atom residue num                           I   N=           2
           0           0
Nuclear spins                              I   N=           2
           1           1
Nuclear ZEff                               R   N=           2
 -1.00000000E+00 -1.00000000E+00
Nuclear QMom                               R   N=           2
  0.00000000E+00  0.00000000E+00
Nuclear GFac                               R   N=           2
  2.79284600E+00  2.79284600E+00
MicOpt                                     I   N=           2
          -1          -1
Number of residues                         I                0
Number of secondary structures             I                0
Number of contracted shells                I                2
Number of primitive shells                 I                6
Pure/Cartesian d shells                    I                0
Pure/Cartesian f shells                    I                0
Highest angular momentum                   I                0
Largest degree of contraction              I                3
Shell types                                I   N=           2
           0           0
Number of primitives per shell             I   N=           2
           3           3
Shell to atom map                          I   N=           2
           1           2
Primitive exponents                        R   N=           6
  3.42525091E+00  6.23913730E-01  1.68855404E-01  3.42525091E+00  6.23913730E-01
  1.68855404E-01
Contraction coefficients                   R   N=           6
  1.54328967E-01  5.35328142E-01  4.44634542E-01  1.54328967E-01  5.35328142E-01
  4.44634542E-01
Coordinates of each shell                  R   N=           6
  0.00000000E+00  0.00000000E+00  2.62322829E-02  0.00000000E+00  0.00000000E+00
  1.37216506E+00
Constraint Structure                       R   N=           6
  0.00000000E+00  0.00000000E+00  2.62322829E-02  0.00000000E+00  0.00000000E+00
  1.37216506E+00
Num ILSW                                   I              100
ILSW                                       I   N=         100
           0           0           0           0           2           0
           0           0           3           0           0          -1
           0           0           0           0           0           0
           0           0           1           0           1           0
           1           1           0           0           0           0
           0           0      100000           0          -1           0
           0           0           0           0           0           0
           0           0           0           1           0           0
           0           0           1           0           0           0
           0           0           4          40           0           0
           0           0           0           0           0           0
           0           0           0           0           0           0
           0           0           0           0           0           0
           0           0           0           0           0           0
           0           0           0           0           0           0
           0           0           0           0           0           0
           0           0           0           0
Num RLSW                                   I               40
RLSW                                       R   N=          40
  1.00000000E+00  1.00000000E+00  1.00000000E+00  1.00000000E+00  1.00000000E+00
  0.00000000E+00  0.00000000E+00  1.00000000E+00  0.00000000E+00  0.00000000E+00
  0.00000000E+00  0.00000000E+00  1.00000000E+00  0.00000000E+00  0.00000000E+00
  0.00000000E+00  0.00000000E+00  1.00000000E+00  0.00000000E+00  0.00000000E+00
  0.00000000E+00  0.00000000E+00  1.00000000E+00  0.00000000E+00  0.00000000E+00
  0.00000000E+00  0.00000000E+00  1.00000000E+00  0.00000000E+00  0.00000000E+00
  0.00000000E+00  0.00000000E+00  1.00000000E+00  0.00000000E+00  0.00000000E+00
  0.00000000E+00  0.00000000E+00  0.00000000E+00  1.00000000E+00  1.00000000E+00
MxBond                                     I                1
NBond                                      I   N=           2
           1           1
IBond                                      I   N=           2
           2           1
RBond                                      R   N=           2
  1.00000000E+00  1.00000000E+00
Virial Ratio                               R      1.924773601447094E+00
SCF Energy                                 R     -1.117505885107837E+00
Total Energy                               R     -1.117505885107837E+00
RMS Force                                  R      4.435205189625531E-06
RMS Density                                R      1.000741510621680E-16
External E-field                           R   N=          35
  0.00000000E+00  0.00000000E+00  0.00000000E+00  0.00000000E+00  0.00000000E+00
  0.00000000E+00  0.00000000E+00  0.00000000E+00  0.00000000E+00  0.00000000E+00
  0.00000000E+00  0.00000000E+00  0.00000000E+00  0.00000000E+00  0.00000000E+00
  0.00000000E+00  0.00000000E+00  0.00000000E+00  0.00000000E+00  0.00000000E+00
  0.00000000E+00  0.00000000E+00  0.00000000E+00  0.00000000E+00  0.00000000E+00
  0.00000000E+00  0.00000000E+00  0.00000000E+00  0.00000000E+00  0.00000000E+00
  0.00000000E+00  0.00000000E+00  0.00000000E+00  0.00000000E+00  0.00000000E+00
IOpCl                                      I                0
IROHF                                      I                0
Alpha Orbital Energies                     R   N=           2
 -5.90215119E-01  7.00638165E-01
Alpha MO coefficients                      R   N=           4
  5.45859514E-01  5.45859514E-01  1.24623370E+00 -1.24623370E+00
Total SCF Density                          R   N=           3
  5.95925217E-01  5.95925217E-01  5.95925217E-01
QEq coupling tensors                       R   N=          12
  2.20949015E-01  0.00000000E+00  2.20949015E-01  0.00000000E+00  0.00000000E+00
 -4.41898029E-01  2.20949015E-01  0.00000000E+00  2.20949015E-01  0.00000000E+00
  0.00000000E+00 -4.41898029E-01
Mulliken Charges                           R   N=           2
 -1.11022302E-16 -1.11022302E-16
Optimization MaxStp                        I                2
Optimization Job offset                    I                0
Optimization Num results per geometry      I                2
Optimization Num geometry variables        I                6
Opt point       1 Results for each geome   R   N=           2
 -1.11750589E+00  0.00000000E+00
Opt point       1 Geometries               R   N=           6
  0.00000000E+00  0.00000000E+00  2.62322829E-02  0.00000000E+00  0.00000000E+00
  1.37216506E+00
Opt point       1 Gradient at each geome   R   N=           6
  0.00000000E+00  0.00000000E+00 -7.68200073E-06  0.00000000E+00  0.00000000E+00
  7.68200073E-06
Optimization Number of geometries          I   N=           1
           1
ONIOM Charges                              I   N=          16
           0           0           0           0           0           0
           0           0           0           0           0           0
           0           0           0           0
ONIOM Multiplicities                       I   N=          16
           1           0           0           0           0           0
           0           0           0           0           0           0
           0           0           0           0
Atom Layers                                I   N=           2
           1           1
Atom Modifiers                             I   N=           2
           0           0
Force Field                                I                0
Atom Modified Types                        C   N=           2
                        
Int Atom Modified Types                    I   N=           2
           0           0
Link Atoms                                 I   N=           2
           0           0
Atom Modified MM Charges                   R   N=           2
  0.00000000E+00  0.00000000E+00
Link Distances                             R   N=           8
  0.00000000E+00  0.00000000E+00  0.00000000E+00  0.00000000E+00  0.00000000E+00
  0.00000000E+00  0.00000000E+00  0.00000000E+00
Cartesian Gradient                         R   N=           6
  0.00000000E+00  0.00000000E+00 -7.68200073E-06  0.00000000E+00  0.00000000E+00
  7.68200073E-06
Cartesian Force Constants                  R   N=          21
  5.70756646E-06  0.00000000E+00  5.70756646E-06  0.00000000E+00  0.00000000E+00
  5.72909758E-01 -5.70756646E-06  0.00000000E+00  0.00000000E+00  5.70756647E-06
  0.00000000E+00 -5.70756647E-06  0.00000000E+00  0.00000000E+00  5.70756647E-06
  0.00000000E+00  0.00000000E+00 -5.72909758E-01  0.00000000E+00  0.00000000E+00
  5.72909758E-01
Dipole Moment                              R   N=           3
  0.00000000E+00  0.00000000E+00 -2.22044605E-16
Dipole Derivatives                         R   N=          18
  0.00000000E+00  0.00000000E+00  0.00000000E+00  0.00000000E+00  0.00000000E+00
  0.00000000E+00  0.00000000E+00  0.00000000E+00 -6.66133815E-16 -2.22044605E-16
  0.00000000E+00  0.00000000E+00  0.00000000E+00 -2.22044605E-16  0.00000000E+00
  0.00000000E+00  0.00000000E+00  4.44089210E-16
Polarizability                             R   N=           6
  0.00000000E+00  0.00000000E+00  0.00000000E+00  0.00000000E+00  0.00000000E+00
  2.88752033E+00
Polarizability Derivatives                 R   N=          36
  0.00000000E+00  0.00000000E+00  0.00000000E+00 -2.14536743E+00  0.00000000E+00
  0.00000000E+00  0.00000000E+00  0.00000000E+00  0.00000000E+00  0.00000000E+00
 -2.14536743E+00  0.00000000E+00  0.00000000E+00  0.00000000E+00  0.00000000E+00
  0.00000000E+00  0.00000000E+00 -3.32397344E+00  0.00000000E+00  0.00000000E+00
  0.00000000E+00  2.14536743E+00  0.00000000E+00  0.00000000E+00  0.00000000E+00
  0.00000000E+00  0.00000000E+00  0.00000000E+00  2.14536743E+00  0.00000000E+00
  0.00000000E+00  0.00000000E+00  0.00000000E+00  0.00000000E+00  0.00000000E+00
  3.32397344E+00
HyperPolarizability                        R   N=          10
  0.00000000E+00  0.00000000E+00  0.00000000E+00  0.00000000E+00  0.00000000E+00
  0.00000000E+00  0.00000000E+00  0.00000000E+00  0.00000000E+00 -3.33066907E-15
