 Entering Gaussian System, Link 0=/home/programs/G09_64/g09/g09
 Initial command:
 /home/programs/G09_64/g09/l1.exe /scratch/Gau-25936.inp -scrdir=/scratch/
 Entering Link 1 = /home/programs/G09_64/g09/l1.exe PID=     25938.
  
 Copyright (c) 1988,1990,1992,1993,1995,1998,2003,2009,2010,
            Gaussian, Inc.  All Rights Reserved.
  
 This is part of the Gaussian(R) 09 program.  It is based on
 the Gaussian(R) 03 system (copyright 2003, Gaussian, Inc.),
 the Gaussian(R) 98 system (copyright 1998, Gaussian, Inc.),
 the Gaussian(R) 94 system (copyright 1995, Gaussian, Inc.),
 the Gaussian 92(TM) system (copyright 1992, Gaussian, Inc.),
 the Gaussian 90(TM) system (copyright 1990, Gaussian, Inc.),
 the Gaussian 88(TM) system (copyright 1988, Gaussian, Inc.),
 the Gaussian 86(TM) system (copyright 1986, Carnegie Mellon
 University), and the Gaussian 82(TM) system (copyright 1983,
 Carnegie Mellon University). Gaussian is a federally registered
 trademark of Gaussian, Inc.
  
 This software contains proprietary and confidential information,
 including trade secrets, belonging to Gaussian, Inc.
  
 This software is provided under written license and may be
 used, copied, transmitted, or stored only in accord with that
 written license.
  
 The following legend is applicable only to US Government
 contracts under FAR:
  
                    RESTRICTED RIGHTS LEGEND
  
 Use, reproduction and disclosure by the US Government is
 subject to restrictions as set forth in subparagraphs (a)
 and (c) of the Commercial Computer Software - Restricted
 Rights clause in FAR 52.227-19.
  
 Gaussian, Inc.
 340 Quinnipiac St., Bldg. 40, Wallingford CT 06492
  
  
 ---------------------------------------------------------------
 Warning -- This program may not be used in any manner that
 competes with the business of Gaussian, Inc. or will provide
 assistance to any competitor of Gaussian, Inc.  The licensee
 of this program is prohibited from giving any competitor of
 Gaussian, Inc. access to this program.  By using this program,
 the user acknowledges that Gaussian, Inc. is engaged in the
 business of creating and licensing software in the field of
 computational chemistry and represents and warrants to the
 licensee that it is not a competitor of Gaussian, Inc. and that
 it will not use this program in any manner prohibited above.
 ---------------------------------------------------------------
  

 Cite this work as:
 Gaussian 09, Revision B.01,
 M. J. Frisch, G. W. Trucks, H. B. Schlegel, G. E. Scuseria, 
 M. A. Robb, J. R. Cheeseman, G. Scalmani, V. Barone, B. Mennucci, 
 G. A. Petersson, H. Nakatsuji, M. Caricato, X. Li, H. P. Hratchian, 
 A. F. Izmaylov, J. Bloino, G. Zheng, J. L. Sonnenberg, M. Hada, 
 M. Ehara, K. Toyota, R. Fukuda, J. Hasegawa, M. Ishida, T. Nakajima, 
 Y. Honda, O. Kitao, H. Nakai, T. Vreven, J. A. Montgomery, Jr., 
 J. E. Peralta, F. Ogliaro, M. Bearpark, J. J. Heyd, E. Brothers, 
 K. N. Kudin, V. N. Staroverov, T. Keith, R. Kobayashi, J. Normand, 
 K. Raghavachari, A. Rendell, J. C. Burant, S. S. Iyengar, J. Tomasi, 
 M. Cossi, N. Rega, J. M. Millam, M. Klene, J. E. Knox, J. B. Cross, 
 V. Bakken, C. Adamo, J. Jaramillo, R. Gomperts, R. E. Stratmann, 
 O. Yazyev, A. J. Austin, R. Cammi, C. Pomelli, J. W. Ochterski, 
 R. L. Martin, K. Morokuma, V. G. Zakrzewski, G. A. Voth, 
 P. Salvador, J. J. Dannenberg, S. Dapprich, A. D. Daniels, 
 O. Farkas, J. B. Foresman, J. V. Ortiz, J. Cioslowski, 
 and D. J. Fox, Gaussian, Inc., Wallingford CT, 2010.
 
 ******************************************
 Gaussian 09:  AM64L-G09RevB.01 12-Aug-2010
                24-Jan-2019 
 ******************************************
 ------------------------------------------------------------------
 #p hf/sto-3g scf=verytight opt=(ts,noeigentest,calcfc) NoSymm freq
 ------------------------------------------------------------------
 1/5=1,10=4,11=1,18=20,38=1/1,3;
 2/9=110,12=2,15=1,17=6,18=5,40=1/2;
 3/6=3,11=9,16=1,25=1,30=1,71=2/1,2,3;
 4//1;
 5/5=2,17=3,38=5/2;
 8/6=4,10=90,11=11/1;
 11/6=1,8=1,9=11,15=111,16=1,31=1/1,2,10;
 10/6=1,7=6,13=1,31=1/2;
 6/7=2,8=2,9=2,10=2,28=1/1;
 7/10=1,18=20,25=1,30=1/1,2,3,16;
 1/5=1,10=4,11=1,18=20/3(2);
 2/9=110,15=1/2;
 99//99;
 2/9=110,15=1/2;
 3/6=3,11=9,16=1,25=1,30=1,71=1/1,2,3;
 4/5=5,16=3/1;
 5/5=2,17=3,38=5/2;
 7/30=1/1,2,3,16;
 1/5=1,11=1,18=20/3(-5);
 2/9=110,15=1/2;
 6/7=2,8=2,9=2,10=2,19=2,28=1/1;
 99/9=1/99;
 Leave Link    1 at Thu Jan 24 18:05:02 2019, MaxMem=          0 cpu:       0.0
 (Enter /home/programs/G09_64/g09/l101.exe)
 --
 --
 --
 Symbolic Z-matrix:
 Charge =  0 Multiplicity = 2
 c                    -1.13181  -0.44628  -0.00556 
 c                    -0.00079   0.52762   0.0578 
 o                     1.26082  -0.10511  -0.08988 
 h                    -2.2838    0.32623   0.01376 
 h                    -1.22448  -0.98607  -0.93909 
 h                    -1.27066  -1.0743    0.86665 
 h                    -0.06166   1.23481  -0.76359 
 h                    -0.03785   1.09821   0.98674 
 h                     1.36908  -0.7387    0.61935 
 h                    -3.01497   0.83941   0.02064 
 
 NAtoms=     10 NQM=     10 NQMF=      0 NMic=      0 NMicF=      0 NTot=     10.
                    Isotopes and Nuclear Properties:
 (Nuclear quadrupole moments (NQMom) in fm**2, nuclear magnetic moments (NMagM)
  in nuclear magnetons)

  Atom         1           2           3           4           5           6           7           8           9          10
 IAtWgt=          12          12          16           1           1           1           1           1           1           1
 AtmWgt=  12.0000000  12.0000000  15.9949146   1.0078250   1.0078250   1.0078250   1.0078250   1.0078250   1.0078250   1.0078250
 NucSpn=           0           0           0           1           1           1           1           1           1           1
 AtZEff=   0.0000000   0.0000000   0.0000000   0.0000000   0.0000000   0.0000000   0.0000000   0.0000000   0.0000000   0.0000000
 NQMom=    0.0000000   0.0000000   0.0000000   0.0000000   0.0000000   0.0000000   0.0000000   0.0000000   0.0000000   0.0000000
 NMagM=    0.0000000   0.0000000   0.0000000   2.7928460   2.7928460   2.7928460   2.7928460   2.7928460   2.7928460   2.7928460
 Leave Link  101 at Thu Jan 24 18:05:03 2019, MaxMem=   33554432 cpu:       0.1
 (Enter /home/programs/G09_64/g09/l103.exe)

 GradGradGradGradGradGradGradGradGradGradGradGradGradGradGradGradGradGrad
 Berny optimization.
 Initialization pass.
                           ----------------------------
                           !    Initial Parameters    !
                           ! (Angstroms and Degrees)  !
 --------------------------                            --------------------------
 ! Name  Definition              Value          Derivative Info.                !
 --------------------------------------------------------------------------------
 ! R1    R(1,2)                  1.4939         calculate D2E/DX2 analytically  !
 ! R2    R(1,4)                  1.3872         calculate D2E/DX2 analytically  !
 ! R3    R(1,5)                  1.0823         calculate D2E/DX2 analytically  !
 ! R4    R(1,6)                  1.0837         calculate D2E/DX2 analytically  !
 ! R5    R(2,3)                  1.4191         calculate D2E/DX2 analytically  !
 ! R6    R(2,7)                  1.0856         calculate D2E/DX2 analytically  !
 ! R7    R(2,8)                  1.0908         calculate D2E/DX2 analytically  !
 ! R8    R(3,9)                  0.9572         calculate D2E/DX2 analytically  !
 ! R9    R(4,10)                 0.8933         calculate D2E/DX2 analytically  !
 ! A1    A(2,1,4)              105.3724         calculate D2E/DX2 analytically  !
 ! A2    A(2,1,5)              115.2484         calculate D2E/DX2 analytically  !
 ! A3    A(2,1,6)              116.1458         calculate D2E/DX2 analytically  !
 ! A4    A(4,1,5)              102.6299         calculate D2E/DX2 analytically  !
 ! A5    A(4,1,6)              101.8361         calculate D2E/DX2 analytically  !
 ! A6    A(5,1,6)              113.216          calculate D2E/DX2 analytically  !
 ! A7    A(1,2,3)              112.2092         calculate D2E/DX2 analytically  !
 ! A8    A(1,2,7)              110.4958         calculate D2E/DX2 analytically  !
 ! A9    A(1,2,8)              110.5736         calculate D2E/DX2 analytically  !
 ! A10   A(3,2,7)              105.1631         calculate D2E/DX2 analytically  !
 ! A11   A(3,2,8)              110.6133         calculate D2E/DX2 analytically  !
 ! A12   A(7,2,8)              107.5589         calculate D2E/DX2 analytically  !
 ! A13   A(2,3,9)              108.5775         calculate D2E/DX2 analytically  !
 ! A14   L(1,4,10,2,-1)        178.7983         calculate D2E/DX2 analytically  !
 ! A15   L(1,4,10,2,-2)        179.3569         calculate D2E/DX2 analytically  !
 ! D1    D(4,1,2,3)           -174.0371         calculate D2E/DX2 analytically  !
 ! D2    D(4,1,2,7)            -57.0212         calculate D2E/DX2 analytically  !
 ! D3    D(4,1,2,8)             61.9468         calculate D2E/DX2 analytically  !
 ! D4    D(5,1,2,3)            -61.6804         calculate D2E/DX2 analytically  !
 ! D5    D(5,1,2,7)             55.3356         calculate D2E/DX2 analytically  !
 ! D6    D(5,1,2,8)            174.3036         calculate D2E/DX2 analytically  !
 ! D7    D(6,1,2,3)             74.1282         calculate D2E/DX2 analytically  !
 ! D8    D(6,1,2,7)           -168.8558         calculate D2E/DX2 analytically  !
 ! D9    D(6,1,2,8)            -49.8878         calculate D2E/DX2 analytically  !
 ! D10   D(1,2,3,9)            -60.2921         calculate D2E/DX2 analytically  !
 ! D11   D(7,2,3,9)            179.5435         calculate D2E/DX2 analytically  !
 ! D12   D(8,2,3,9)             63.7019         calculate D2E/DX2 analytically  !
 --------------------------------------------------------------------------------
 Trust Radius=3.00D-01 FncErr=1.00D-07 GrdErr=1.00D-07
 Number of steps in this run=     46 maximum allowed number of steps=    100.
 Search for a saddle point of order  1.
 GradGradGradGradGradGradGradGradGradGradGradGradGradGradGradGradGradGrad

 Leave Link  103 at Thu Jan 24 18:05:03 2019, MaxMem=   33554432 cpu:       0.0
 (Enter /home/programs/G09_64/g09/l202.exe)
                          Input orientation:                          
 ---------------------------------------------------------------------
 Center     Atomic      Atomic             Coordinates (Angstroms)
 Number     Number       Type             X           Y           Z
 ---------------------------------------------------------------------
      1          6           0       -1.131812   -0.446284   -0.005563
      2          6           0       -0.000789    0.527624    0.057800
      3          8           0        1.260815   -0.105106   -0.089880
      4          1           0       -2.283796    0.326226    0.013762
      5          1           0       -1.224484   -0.986073   -0.939088
      6          1           0       -1.270660   -1.074298    0.866645
      7          1           0       -0.061664    1.234808   -0.763585
      8          1           0       -0.037851    1.098213    0.986736
      9          1           0        1.369075   -0.738703    0.619350
     10          1           0       -3.014970    0.839414    0.020644
 ---------------------------------------------------------------------
                    Distance matrix (angstroms):
                    1          2          3          4          5
     1  C    0.000000
     2  C    1.493896   0.000000
     3  O    2.418300   1.419085   0.000000
     4  H    1.387160   2.292296   3.572262   0.000000
     5  H    1.082326   2.186891   2.770193   1.937058   0.000000
     6  H    1.083710   2.198399   2.874481   1.927517   1.808477
     7  H    2.132108   1.085582   1.999550   2.523422   2.513019
     8  H    2.137026   1.090810   2.072103   2.566498   3.075897
     9  H    2.594313   1.948191   0.957169   3.852827   3.035864
    10  H    2.280349   3.030492   4.380259   0.893322   2.731177
                    6          7          8          9         10
     6  H    0.000000
     7  H    3.074295   0.000000
     8  H    2.500809   1.755804   0.000000
     9  H    2.672448   2.802547   2.342792   0.000000
    10  H    2.724083   3.081131   3.140629   4.697739   0.000000
 Symmetry turned off by external request.
 Stoichiometry    C2H7O(2)
 Framework group  C1[X(C2H7O)]
 Deg. of freedom    24
 Full point group                 C1      NOp   1
 Rotational constants (GHZ):     31.9126857      7.8840786      6.9762362
 Leave Link  202 at Thu Jan 24 18:05:03 2019, MaxMem=   33554432 cpu:       0.0
 (Enter /home/programs/G09_64/g09/l301.exe)
 Standard basis: STO-3G (5D, 7F)
 Ernie: Thresh=  0.10000D-02 Tol=  0.10000D-05 Strict=F.
 Integral buffers will be    131072 words long.
 Raffenetti 2 integral format.
 Two-electron integral symmetry is turned off.
    22 basis functions,    66 primitive gaussians,    22 cartesian basis functions
    14 alpha electrons       13 beta electrons
       nuclear repulsion energy        86.1095777955 Hartrees.
 IExCor=    0 DFT=F Ex=HF Corr=None ExCW=0 ScaHFX=  1.000000
 ScaDFX=  1.000000  1.000000  1.000000  1.000000 ScalE2=  1.000000  1.000000
 IRadAn=      0 IRanWt=     -1 IRanGd=            0 ICorTp=0
 NAtoms=   10 NActive=   10 NUniq=   10 SFac= 1.00D+00 NAtFMM=   50 NAOKFM=F Big=F
 Leave Link  301 at Thu Jan 24 18:05:03 2019, MaxMem=   33554432 cpu:       0.1
 (Enter /home/programs/G09_64/g09/l302.exe)
 NPDir=0 NMtPBC=     1 NCelOv=     1 NCel=       1 NClECP=     1 NCelD=      1
         NCelK=      1 NCelE2=     1 NClLst=     1 CellRange=     0.0.
 One-electron integrals computed using PRISM.
 NBasis=    22 RedAO= T  NBF=    22
 NBsUse=    22 1.00D-06 NBFU=    22
 Leave Link  302 at Thu Jan 24 18:05:03 2019, MaxMem=   33554432 cpu:       0.1
 (Enter /home/programs/G09_64/g09/l303.exe)
 DipDrv:  MaxL=1.
 Leave Link  303 at Thu Jan 24 18:05:03 2019, MaxMem=   33554432 cpu:       0.0
 (Enter /home/programs/G09_64/g09/l401.exe)
 Harris functional with IExCor=  205 diagonalized for initial guess.
 ExpMin= 1.69D-01 ExpMax= 1.31D+02 ExpMxC= 1.31D+02 IAcc=1 IRadAn=         1 AccDes= 0.00D+00
 HarFok:  IExCor=  205 AccDes= 0.00D+00 IRadAn=         1 IDoV= 1
 ScaDFX=  1.000000  1.000000  1.000000  1.000000
 FoFCou: FMM=F IPFlag=           0 FMFlag=      100000 FMFlg1=           0
         NFxFlg=           0 DoJE=T BraDBF=F KetDBF=T FulRan=T
         Omega=  0.000000  0.000000  1.000000  0.000000  0.000000 ICntrl=     500 IOpCl=  0
         NMat0=    1 NMatS0=    1 NMatT0=    0 NMatD0=    1 NMtDS0=    0 NMtDT0=    0
         I1Cent=           4 NGrid=           0.
 Symmetry not used in FoFCou.
 Harris En= -152.784662864758    
 Initial guess <Sx>= 0.0000 <Sy>= 0.0000 <Sz>= 0.5000 <S**2>= 0.7500 S= 0.5000
 Leave Link  401 at Thu Jan 24 18:05:03 2019, MaxMem=   33554432 cpu:       0.3
 (Enter /home/programs/G09_64/g09/l502.exe)
 UHF open shell SCF:
 Requested convergence on RMS density matrix=1.00D-08 within 128 cycles.
 Requested convergence on MAX density matrix=1.00D-06.
 Requested convergence on             energy=1.00D-06.
 No special actions if energy rises.
 Using DIIS extrapolation, IDIIS=  1040.
 Two-electron integral symmetry not used.
 Keep R1 and R2 ints in memory in canonical form, NReq=884165.
 IEnd=       19882 IEndB=       19882 NGot=    33554432 MDV=    33487407
 LenX=    33487407 LenY=    33486482
 Symmetry not used in FoFDir.
 MinBra= 0 MaxBra= 1 Meth= 1.
 IRaf=       0 NMat=   1 IRICut=       1 DoRegI=T DoRafI=F ISym2E= 0 JSym2E=0.

 Cycle   1  Pass 1  IDiag  1:
 E= -152.465784677217    
 DIIS: error= 4.03D-02 at cycle   1 NSaved=   1.
 NSaved= 1 IEnMin= 1 EnMin= -152.465784677217     IErMin= 1 ErrMin= 4.03D-02
 ErrMax= 4.03D-02 EMaxC= 1.00D-01 BMatC= 2.91D-01 BMatP= 2.91D-01
 IDIUse=3 WtCom= 5.97D-01 WtEn= 4.03D-01
 Coeff-Com:  0.100D+01
 Coeff-En:   0.100D+01
 Coeff:      0.100D+01
 Gap=     0.900 Goal=   None    Shift=    0.000
 Gap=     0.503 Goal=   None    Shift=    0.000
 GapD=    0.503 DampG=2.000 DampE=0.500 DampFc=1.0000 IDamp=-1.
 RMSDP=1.74D-02 MaxDP=1.25D-01              OVMax= 0.00D+00

 Cycle   2  Pass 1  IDiag  1:
 E= -152.553428451764     Delta-E=       -0.087643774547 Rises=F Damp=F
 DIIS: error= 1.13D-02 at cycle   2 NSaved=   2.
 NSaved= 2 IEnMin= 2 EnMin= -152.553428451764     IErMin= 2 ErrMin= 1.13D-02
 ErrMax= 1.13D-02 EMaxC= 1.00D-01 BMatC= 1.43D-02 BMatP= 2.91D-01
 IDIUse=3 WtCom= 8.87D-01 WtEn= 1.13D-01
 Coeff-Com:  0.489D-01 0.951D+00
 Coeff-En:   0.000D+00 0.100D+01
 Coeff:      0.434D-01 0.957D+00
 Gap=     0.876 Goal=   None    Shift=    0.000
 Gap=     0.561 Goal=   None    Shift=    0.000
 RMSDP=4.54D-03 MaxDP=4.04D-02 DE=-8.76D-02 OVMax= 0.00D+00

 Cycle   3  Pass 1  IDiag  1:
 E= -152.559788815166     Delta-E=       -0.006360363402 Rises=F Damp=F
 DIIS: error= 6.03D-03 at cycle   3 NSaved=   3.
 NSaved= 3 IEnMin= 3 EnMin= -152.559788815166     IErMin= 3 ErrMin= 6.03D-03
 ErrMax= 6.03D-03 EMaxC= 1.00D-01 BMatC= 2.18D-03 BMatP= 1.43D-02
 IDIUse=3 WtCom= 9.40D-01 WtEn= 6.03D-02
 Coeff-Com: -0.384D-01-0.128D+00 0.117D+01
 Coeff-En:   0.000D+00 0.000D+00 0.100D+01
 Coeff:     -0.361D-01-0.120D+00 0.116D+01
 Gap=     0.870 Goal=   None    Shift=    0.000
 Gap=     0.584 Goal=   None    Shift=    0.000
 RMSDP=2.01D-03 MaxDP=2.64D-02 DE=-6.36D-03 OVMax= 0.00D+00

 Cycle   4  Pass 1  IDiag  1:
 E= -152.561232962803     Delta-E=       -0.001444147638 Rises=F Damp=F
 DIIS: error= 2.40D-03 at cycle   4 NSaved=   4.
 NSaved= 4 IEnMin= 4 EnMin= -152.561232962803     IErMin= 4 ErrMin= 2.40D-03
 ErrMax= 2.40D-03 EMaxC= 1.00D-01 BMatC= 4.11D-04 BMatP= 2.18D-03
 IDIUse=3 WtCom= 9.76D-01 WtEn= 2.40D-02
 Coeff-Com:  0.626D-02-0.739D-01-0.456D+00 0.152D+01
 Coeff-En:   0.000D+00 0.000D+00 0.000D+00 0.100D+01
 Coeff:      0.611D-02-0.722D-01-0.445D+00 0.151D+01
 Gap=     0.879 Goal=   None    Shift=    0.000
 Gap=     0.586 Goal=   None    Shift=    0.000
 RMSDP=1.32D-03 MaxDP=1.78D-02 DE=-1.44D-03 OVMax= 0.00D+00

 Cycle   5  Pass 1  IDiag  1:
 E= -152.561568971431     Delta-E=       -0.000336008628 Rises=F Damp=F
 DIIS: error= 6.23D-04 at cycle   5 NSaved=   5.
 NSaved= 5 IEnMin= 5 EnMin= -152.561568971431     IErMin= 5 ErrMin= 6.23D-04
 ErrMax= 6.23D-04 EMaxC= 1.00D-01 BMatC= 3.30D-05 BMatP= 4.11D-04
 IDIUse=3 WtCom= 9.94D-01 WtEn= 6.23D-03
 Coeff-Com:  0.942D-03 0.369D-01 0.526D-01-0.470D+00 0.138D+01
 Coeff-En:   0.000D+00 0.000D+00 0.000D+00 0.000D+00 0.100D+01
 Coeff:      0.936D-03 0.367D-01 0.523D-01-0.468D+00 0.138D+01
 Gap=     0.878 Goal=   None    Shift=    0.000
 Gap=     0.588 Goal=   None    Shift=    0.000
 RMSDP=3.50D-04 MaxDP=2.82D-03 DE=-3.36D-04 OVMax= 0.00D+00

 Cycle   6  Pass 1  IDiag  1:
 E= -152.561597425550     Delta-E=       -0.000028454119 Rises=F Damp=F
 DIIS: error= 2.58D-04 at cycle   6 NSaved=   6.
 NSaved= 6 IEnMin= 6 EnMin= -152.561597425550     IErMin= 6 ErrMin= 2.58D-04
 ErrMax= 2.58D-04 EMaxC= 1.00D-01 BMatC= 5.97D-06 BMatP= 3.30D-05
 IDIUse=3 WtCom= 9.97D-01 WtEn= 2.58D-03
 Coeff-Com: -0.151D-02-0.464D-02 0.459D-01-0.373D-01-0.586D+00 0.158D+01
 Coeff-En:   0.000D+00 0.000D+00 0.000D+00 0.000D+00 0.000D+00 0.100D+01
 Coeff:     -0.150D-02-0.463D-02 0.458D-01-0.372D-01-0.585D+00 0.158D+01
 Gap=     0.879 Goal=   None    Shift=    0.000
 Gap=     0.588 Goal=   None    Shift=    0.000
 RMSDP=1.98D-04 MaxDP=1.50D-03 DE=-2.85D-05 OVMax= 0.00D+00

 Cycle   7  Pass 1  IDiag  1:
 E= -152.561603594142     Delta-E=       -0.000006168592 Rises=F Damp=F
 DIIS: error= 6.38D-05 at cycle   7 NSaved=   7.
 NSaved= 7 IEnMin= 7 EnMin= -152.561603594142     IErMin= 7 ErrMin= 6.38D-05
 ErrMax= 6.38D-05 EMaxC= 1.00D-01 BMatC= 5.89D-07 BMatP= 5.97D-06
 IDIUse=1 WtCom= 1.00D+00 WtEn= 0.00D+00
 Coeff-Com:  0.597D-03-0.189D-02-0.296D-01 0.755D-01 0.112D+00-0.771D+00
 Coeff-Com:  0.161D+01
 Coeff:      0.597D-03-0.189D-02-0.296D-01 0.755D-01 0.112D+00-0.771D+00
 Coeff:      0.161D+01
 Gap=     0.879 Goal=   None    Shift=    0.000
 Gap=     0.588 Goal=   None    Shift=    0.000
 RMSDP=6.85D-05 MaxDP=4.65D-04 DE=-6.17D-06 OVMax= 0.00D+00

 Cycle   8  Pass 1  IDiag  1:
 E= -152.561604188322     Delta-E=       -0.000000594180 Rises=F Damp=F
 DIIS: error= 1.98D-05 at cycle   8 NSaved=   8.
 NSaved= 8 IEnMin= 8 EnMin= -152.561604188322     IErMin= 8 ErrMin= 1.98D-05
 ErrMax= 1.98D-05 EMaxC= 1.00D-01 BMatC= 4.01D-08 BMatP= 5.89D-07
 IDIUse=1 WtCom= 1.00D+00 WtEn= 0.00D+00
 Coeff-Com:  0.159D-04 0.260D-03 0.827D-03-0.442D-02 0.129D-01 0.997D-02
 Coeff-Com: -0.189D+00 0.117D+01
 Coeff:      0.159D-04 0.260D-03 0.827D-03-0.442D-02 0.129D-01 0.997D-02
 Coeff:     -0.189D+00 0.117D+01
 Gap=     0.879 Goal=   None    Shift=    0.000
 Gap=     0.588 Goal=   None    Shift=    0.000
 RMSDP=1.11D-05 MaxDP=8.63D-05 DE=-5.94D-07 OVMax= 0.00D+00

 Cycle   9  Pass 1  IDiag  1:
 E= -152.561604222538     Delta-E=       -0.000000034217 Rises=F Damp=F
 DIIS: error= 1.10D-05 at cycle   9 NSaved=   9.
 NSaved= 9 IEnMin= 9 EnMin= -152.561604222538     IErMin= 9 ErrMin= 1.10D-05
 ErrMax= 1.10D-05 EMaxC= 1.00D-01 BMatC= 1.31D-08 BMatP= 4.01D-08
 IDIUse=1 WtCom= 1.00D+00 WtEn= 0.00D+00
 Coeff-Com: -0.148D-03 0.248D-03 0.687D-02-0.160D-01-0.353D-01 0.189D+00
 Coeff-Com: -0.300D+00-0.727D+00 0.188D+01
 Coeff:     -0.148D-03 0.248D-03 0.687D-02-0.160D-01-0.353D-01 0.189D+00
 Coeff:     -0.300D+00-0.727D+00 0.188D+01
 Gap=     0.879 Goal=   None    Shift=    0.000
 Gap=     0.588 Goal=   None    Shift=    0.000
 RMSDP=1.11D-05 MaxDP=8.85D-05 DE=-3.42D-08 OVMax= 0.00D+00

 Cycle  10  Pass 1  IDiag  1:
 E= -152.561604239339     Delta-E=       -0.000000016800 Rises=F Damp=F
 DIIS: error= 3.03D-06 at cycle  10 NSaved=  10.
 NSaved=10 IEnMin=10 EnMin= -152.561604239339     IErMin=10 ErrMin= 3.03D-06
 ErrMax= 3.03D-06 EMaxC= 1.00D-01 BMatC= 1.13D-09 BMatP= 1.31D-08
 IDIUse=1 WtCom= 1.00D+00 WtEn= 0.00D+00
 Coeff-Com:  0.635D-04-0.180D-03-0.325D-02 0.796D-02 0.138D-01-0.856D-01
 Coeff-Com:  0.160D+00 0.149D+00-0.845D+00 0.160D+01
 Coeff:      0.635D-04-0.180D-03-0.325D-02 0.796D-02 0.138D-01-0.856D-01
 Coeff:      0.160D+00 0.149D+00-0.845D+00 0.160D+01
 Gap=     0.879 Goal=   None    Shift=    0.000
 Gap=     0.588 Goal=   None    Shift=    0.000
 RMSDP=3.72D-06 MaxDP=3.15D-05 DE=-1.68D-08 OVMax= 0.00D+00

 Cycle  11  Pass 1  IDiag  1:
 E= -152.561604240789     Delta-E=       -0.000000001450 Rises=F Damp=F
 DIIS: error= 6.81D-07 at cycle  11 NSaved=  11.
 NSaved=11 IEnMin=11 EnMin= -152.561604240789     IErMin=11 ErrMin= 6.81D-07
 ErrMax= 6.81D-07 EMaxC= 1.00D-01 BMatC= 7.91D-11 BMatP= 1.13D-09
 IDIUse=1 WtCom= 1.00D+00 WtEn= 0.00D+00
 Coeff-Com: -0.398D-04 0.111D-03 0.209D-02-0.498D-02-0.914D-02 0.557D-01
 Coeff-Com: -0.107D+00-0.723D-01 0.547D+00-0.123D+01 0.182D+01
 Coeff:     -0.398D-04 0.111D-03 0.209D-02-0.498D-02-0.914D-02 0.557D-01
 Coeff:     -0.107D+00-0.723D-01 0.547D+00-0.123D+01 0.182D+01
 Gap=     0.879 Goal=   None    Shift=    0.000
 Gap=     0.588 Goal=   None    Shift=    0.000
 RMSDP=7.41D-07 MaxDP=7.50D-06 DE=-1.45D-09 OVMax= 0.00D+00

 Cycle  12  Pass 1  IDiag  1:
 E= -152.561604240872     Delta-E=       -0.000000000083 Rises=F Damp=F
 DIIS: error= 2.26D-07 at cycle  12 NSaved=  12.
 NSaved=12 IEnMin=12 EnMin= -152.561604240872     IErMin=12 ErrMin= 2.26D-07
 ErrMax= 2.26D-07 EMaxC= 1.00D-01 BMatC= 7.10D-12 BMatP= 7.91D-11
 IDIUse=1 WtCom= 1.00D+00 WtEn= 0.00D+00
 Coeff-Com:  0.130D-04-0.305D-04-0.705D-03 0.156D-02 0.353D-02-0.198D-01
 Coeff-Com:  0.386D-01 0.190D-01-0.191D+00 0.472D+00-0.956D+00 0.163D+01
 Coeff:      0.130D-04-0.305D-04-0.705D-03 0.156D-02 0.353D-02-0.198D-01
 Coeff:      0.386D-01 0.190D-01-0.191D+00 0.472D+00-0.956D+00 0.163D+01
 Gap=     0.879 Goal=   None    Shift=    0.000
 Gap=     0.588 Goal=   None    Shift=    0.000
 RMSDP=2.44D-07 MaxDP=1.74D-06 DE=-8.34D-11 OVMax= 0.00D+00

 Cycle  13  Pass 1  IDiag  1:
 E= -152.561604240879     Delta-E=       -0.000000000007 Rises=F Damp=F
 DIIS: error= 6.09D-08 at cycle  13 NSaved=  13.
 NSaved=13 IEnMin=13 EnMin= -152.561604240879     IErMin=13 ErrMin= 6.09D-08
 ErrMax= 6.09D-08 EMaxC= 1.00D-01 BMatC= 4.70D-13 BMatP= 7.10D-12
 IDIUse=1 WtCom= 1.00D+00 WtEn= 0.00D+00
 Coeff-Com: -0.316D-05 0.520D-05 0.179D-03-0.346D-03-0.110D-02 0.546D-02
 Coeff-Com: -0.108D-01-0.327D-02 0.512D-01-0.136D+00 0.317D+00-0.739D+00
 Coeff-Com:  0.152D+01
 Coeff:     -0.316D-05 0.520D-05 0.179D-03-0.346D-03-0.110D-02 0.546D-02
 Coeff:     -0.108D-01-0.327D-02 0.512D-01-0.136D+00 0.317D+00-0.739D+00
 Coeff:      0.152D+01
 Gap=     0.879 Goal=   None    Shift=    0.000
 Gap=     0.588 Goal=   None    Shift=    0.000
 RMSDP=5.29D-08 MaxDP=4.63D-07 DE=-7.28D-12 OVMax= 0.00D+00

 Cycle  14  Pass 1  IDiag  1:
 E= -152.561604240880     Delta-E=       -0.000000000001 Rises=F Damp=F
 DIIS: error= 2.03D-08 at cycle  14 NSaved=  14.
 NSaved=14 IEnMin=14 EnMin= -152.561604240880     IErMin=14 ErrMin= 2.03D-08
 ErrMax= 2.03D-08 EMaxC= 1.00D-01 BMatC= 6.32D-14 BMatP= 4.70D-13
 IDIUse=1 WtCom= 1.00D+00 WtEn= 0.00D+00
 Coeff-Com:  0.119D-05-0.102D-05-0.720D-04 0.117D-03 0.524D-03-0.237D-02
 Coeff-Com:  0.475D-02 0.705D-03-0.218D-01 0.606D-01-0.150D+00 0.399D+00
 Coeff-Com: -0.117D+01 0.188D+01
 Coeff:      0.119D-05-0.102D-05-0.720D-04 0.117D-03 0.524D-03-0.237D-02
 Coeff:      0.475D-02 0.705D-03-0.218D-01 0.606D-01-0.150D+00 0.399D+00
 Coeff:     -0.117D+01 0.188D+01
 Gap=     0.879 Goal=   None    Shift=    0.000
 Gap=     0.588 Goal=   None    Shift=    0.000
 RMSDP=2.34D-08 MaxDP=1.91D-07 DE=-5.12D-13 OVMax= 0.00D+00

 Cycle  15  Pass 1  IDiag  1:
 E= -152.561604240880     Delta-E=        0.000000000000 Rises=F Damp=F
 DIIS: error= 5.42D-09 at cycle  15 NSaved=  15.
 NSaved=15 IEnMin=15 EnMin= -152.561604240880     IErMin=15 ErrMin= 5.42D-09
 ErrMax= 5.42D-09 EMaxC= 1.00D-01 BMatC= 3.55D-15 BMatP= 6.32D-14
 IDIUse=1 WtCom= 1.00D+00 WtEn= 0.00D+00
 Coeff-Com: -0.152D-06-0.382D-06 0.113D-04-0.697D-05-0.126D-03 0.469D-03
 Coeff-Com: -0.960D-03 0.139D-03 0.419D-02-0.129D-01 0.361D-01-0.114D+00
 Coeff-Com:  0.410D+00-0.861D+00 0.154D+01
 Coeff:     -0.152D-06-0.382D-06 0.113D-04-0.697D-05-0.126D-03 0.469D-03
 Coeff:     -0.960D-03 0.139D-03 0.419D-02-0.129D-01 0.361D-01-0.114D+00
 Coeff:      0.410D+00-0.861D+00 0.154D+01
 Gap=     0.879 Goal=   None    Shift=    0.000
 Gap=     0.588 Goal=   None    Shift=    0.000
 RMSDP=5.03D-09 MaxDP=4.37D-08 DE=-1.71D-13 OVMax= 0.00D+00

 SCF Done:  E(UHF) =  -152.561604241     A.U. after   15 cycles
             Convg  =    0.5034D-08             -V/T =  2.0056
 <Sx>= 0.0000 <Sy>= 0.0000 <Sz>= 0.5000 <S**2>= 0.7911 S= 0.5204
 <L.S>= 0.000000000000E+00
 KE= 1.517168393200D+02 PE=-5.307205386640D+02 EE= 1.403325173076D+02
 Annihilation of the first spin contaminant:
 S**2 before annihilation     0.7911,   after     0.7506
 Leave Link  502 at Thu Jan 24 18:05:03 2019, MaxMem=   33554432 cpu:       0.1
 (Enter /home/programs/G09_64/g09/l801.exe)
 Range of M.O.s used for correlation:     1    22
 NBasis=    22 NAE=    14 NBE=    13 NFC=     0 NFV=     0
 NROrb=     22 NOA=    14 NOB=    13 NVA=     8 NVB=     9
 Leave Link  801 at Thu Jan 24 18:05:03 2019, MaxMem=   33554432 cpu:       0.0
 (Enter /home/programs/G09_64/g09/l1101.exe)
 Using compressed storage, NAtomX=    10.
 Will process  11 centers per pass.
 Leave Link 1101 at Thu Jan 24 18:05:03 2019, MaxMem=   33554432 cpu:       0.1
 (Enter /home/programs/G09_64/g09/l1102.exe)
 Symmetrizing basis deriv contribution to polar:
 IMax=3 JMax=2 DiffMx= 0.00D+00
 Leave Link 1102 at Thu Jan 24 18:05:03 2019, MaxMem=   33554432 cpu:       0.0
 (Enter /home/programs/G09_64/g09/l1110.exe)
 Forming Gx(P) for the SCF density, NAtomX=    10.
 Integral derivatives from FoFDir/FoFCou, PRISM(SPDF).
 Do as many integral derivatives as possible in FoFDir.
 G2DrvN: MDV=      33554248.
 G2DrvN: will do    11 centers at a time, making    1 passes doing MaxLOS=1.
 Calling FoFCou, ICntrl=  3107 FMM=F I1Cent=   0 AccDes= 0.00D+00.
 FoFCou: FMM=F IPFlag=           0 FMFlag=      100000 FMFlg1=           0
         NFxFlg=           0 DoJE=F BraDBF=F KetDBF=F FulRan=T
         Omega=  0.000000  0.000000  1.000000  0.000000  0.000000 ICntrl=    3107 IOpCl=  1
         NMat0=    1 NMatS0=    1 NMatT0=    0 NMatD0=    1 NMtDS0=    0 NMtDT0=    0
         I1Cent=           0 NGrid=           0.
 Symmetry not used in FoFCou.
 FoFDir/FoFCou used for L=0 through L=1.
 End of G2Drv Frequency-dependent properties file   721 does not exist.
 End of G2Drv Frequency-dependent properties file   722 does not exist.
 Leave Link 1110 at Thu Jan 24 18:05:04 2019, MaxMem=   33554432 cpu:       0.1
 (Enter /home/programs/G09_64/g09/l1002.exe)
 Minotr:  UHF open shell wavefunction.
          IDoAtm=1111111111
          Direct CPHF calculation.
          Differentiating once with respect to nuclear coordinates.
          Requested convergence is 1.0D-06 RMS, and 1.0D-05 maximum.
          Secondary convergence is 1.0D-12 RMS, and 1.0D-12 maximum.
          NewPWx=T KeepS1=F KeepF1=F KeepIn=T MapXYZ=F SortEE=F KeepMc=T.
          MDV=      33554328 using IRadAn=       2.
          Keep R1 and R2 ints in memory in canonical form, NReq=864982.
 Symmetry not used in FoFDir.
 MinBra= 0 MaxBra= 1 Meth= 1.
 IRaf=       0 NMat=   1 IRICut=       1 DoRegI=T DoRafI=F ISym2E= 0 JSym2E=0.
          Solving linear equations simultaneously, MaxMat=       0.
          There are    33 degrees of freedom in the 1st order CPHF.  IDoFFX=5.
     27 vectors produced by pass  0 Test12= 6.94D-12 3.03D-07 XBig12= 6.70D-02 1.21D-01.
 AX will form    27 AO Fock derivatives at one time.
     27 vectors produced by pass  1 Test12= 6.94D-12 3.03D-07 XBig12= 6.26D-04 6.29D-03.
     27 vectors produced by pass  2 Test12= 6.94D-12 3.03D-07 XBig12= 7.43D-06 6.12D-04.
     27 vectors produced by pass  3 Test12= 6.94D-12 3.03D-07 XBig12= 7.19D-08 6.33D-05.
     11 vectors produced by pass  4 Test12= 6.94D-12 3.03D-07 XBig12= 3.76D-10 5.11D-06.
 Inverted reduced A of dimension   119 with in-core refinement.
 End of Minotr Frequency-dependent properties file   721 does not exist.
 End of Minotr Frequency-dependent properties file   722 does not exist.
 Leave Link 1002 at Thu Jan 24 18:05:04 2019, MaxMem=   33554432 cpu:       0.1
 (Enter /home/programs/G09_64/g09/l601.exe)
 Copying SCF densities to generalized density rwf, IOpCl= 1 IROHF=0.

 **********************************************************************

            Population analysis using the SCF density.

 **********************************************************************

 Alpha  occ. eigenvalues --  -20.25437 -11.09700 -11.04501  -1.29478  -0.99226
 Alpha  occ. eigenvalues --   -0.81298  -0.63839  -0.62276  -0.57066  -0.53180
 Alpha  occ. eigenvalues --   -0.50161  -0.42008  -0.36390  -0.30314
 Alpha virt. eigenvalues --    0.57583   0.62015   0.67257   0.69333   0.73650
 Alpha virt. eigenvalues --    0.75093   0.78671   0.81169
  Beta  occ. eigenvalues --  -20.25285 -11.09966 -11.02075  -1.28784  -0.94865
  Beta  occ. eigenvalues --   -0.78667  -0.63343  -0.56527  -0.54953  -0.50555
  Beta  occ. eigenvalues --   -0.48191  -0.40390  -0.35392
  Beta virt. eigenvalues --    0.23370   0.58875   0.62736   0.69174   0.71931
  Beta virt. eigenvalues --    0.75076   0.76513   0.82644   0.87120
          Condensed to atoms (all electrons):
              1          2          3          4          5          6
     1  C    4.982799   0.369498  -0.018634   0.123582   0.384469   0.383464
     2  C    0.369498   4.698175   0.267251  -0.009325  -0.021849  -0.022026
     3  O   -0.018634   0.267251   7.838330   0.000216  -0.000281  -0.000319
     4  H    0.123582  -0.009325   0.000216   0.625016  -0.009765  -0.010211
     5  H    0.384469  -0.021849  -0.000281  -0.009765   0.603357  -0.022743
     6  H    0.383464  -0.022026  -0.000319  -0.010211  -0.022743   0.614172
     7  H   -0.024413   0.382128  -0.020937  -0.001512  -0.002465   0.001823
     8  H   -0.027610   0.377478  -0.016841  -0.001014   0.001876  -0.002698
     9  H   -0.002349  -0.042635   0.259007  -0.000013  -0.000002   0.000527
    10  H   -0.040033  -0.001110  -0.000002   0.253730  -0.000801  -0.000871
              7          8          9         10
     1  C   -0.024413  -0.027610  -0.002349  -0.040033
     2  C    0.382128   0.377478  -0.042635  -0.001110
     3  O   -0.020937  -0.016841   0.259007  -0.000002
     4  H   -0.001512  -0.001014  -0.000013   0.253730
     5  H   -0.002465   0.001876  -0.000002  -0.000801
     6  H    0.001823  -0.002698   0.000527  -0.000871
     7  H    0.611829  -0.023910   0.003883   0.000147
     8  H   -0.023910   0.640758  -0.002901   0.000121
     9  H    0.003883  -0.002901   0.597456   0.000001
    10  H    0.000147   0.000121   0.000001   0.824248
 Mulliken atomic charges:
              1
     1  C   -0.130774
     2  C    0.002416
     3  O   -0.307790
     4  H    0.029297
     5  H    0.068203
     6  H    0.058882
     7  H    0.073427
     8  H    0.054742
     9  H    0.187026
    10  H   -0.035430
 Sum of Mulliken atomic charges =   0.00000
 Mulliken charges with hydrogens summed into heavy atoms:
              1
     1  C   -0.009821
     2  C    0.130585
     3  O   -0.120764
 Sum of Mulliken charges with hydrogens summed into heavy atoms =   0.00000
          Atomic-Atomic Spin Densities.
              1          2          3          4          5          6
     1  C    0.972522  -0.011245  -0.005846   0.013316  -0.010602  -0.010586
     2  C   -0.011245  -0.099113   0.003461   0.002281   0.001003   0.000935
     3  O   -0.005846   0.003461   0.056257  -0.000023  -0.000177  -0.000156
     4  H    0.013316   0.002281  -0.000023  -0.259868   0.002694   0.002845
     5  H   -0.010602   0.001003  -0.000177   0.002694  -0.053792   0.001318
     6  H   -0.010586   0.000935  -0.000156   0.002845   0.001318  -0.053908
     7  H   -0.002762   0.002259  -0.000803   0.000085   0.000285   0.000063
     8  H   -0.002105   0.002321  -0.000550   0.000037   0.000038   0.000238
     9  H    0.000371  -0.000198  -0.000115   0.000000   0.000024   0.000051
    10  H   -0.054314   0.000888  -0.000016  -0.010980   0.001227   0.001267
              7          8          9         10
     1  C   -0.002762  -0.002105   0.000371  -0.054314
     2  C    0.002259   0.002321  -0.000198   0.000888
     3  O   -0.000803  -0.000550  -0.000115  -0.000016
     4  H    0.000085   0.000037   0.000000  -0.010980
     5  H    0.000285   0.000038   0.000024   0.001227
     6  H    0.000063   0.000238   0.000051   0.001267
     7  H    0.010842  -0.000047   0.000016   0.000427
     8  H   -0.000047   0.007249   0.000012   0.000255
     9  H    0.000016   0.000012  -0.004283   0.000002
    10  H    0.000427   0.000255   0.000002   0.569697
 Mulliken atomic spin densities:
              1
     1  C    0.888750
     2  C   -0.097406
     3  O    0.052031
     4  H   -0.249613
     5  H   -0.057980
     6  H   -0.057932
     7  H    0.010366
     8  H    0.007449
     9  H   -0.004119
    10  H    0.508454
 Sum of Mulliken atomic spin densities =   1.00000
 APT atomic charges:
              1
     1  C   -0.681129
     2  C   -0.509008
     3  O   -0.552807
     4  H   -0.300130
     5  H    0.332179
     6  H    0.337761
     7  H    0.330203
     8  H    0.312512
     9  H    0.394866
    10  H    0.335554
 Sum of APT charges=   0.00000
 APT Atomic charges with hydrogens summed into heavy atoms:
              1
     1  C    0.024234
     2  C    0.133707
     3  O   -0.157941
     4  H    0.000000
     5  H    0.000000
     6  H    0.000000
     7  H    0.000000
     8  H    0.000000
     9  H    0.000000
    10  H    0.000000
 Sum of APT charges=   0.00000
 Electronic spatial extent (au):  <R**2>=            232.2255
 Charge=              0.0000 electrons
 Dipole moment (field-independent basis, Debye):
    X=             -0.5425    Y=             -0.6039    Z=              1.0634  Tot=              1.3378
 Quadrupole moment (field-independent basis, Debye-Ang):
   XX=            -22.7648   YY=            -18.6240   ZZ=            -18.6550
   XY=             -0.4166   XZ=              1.6024   YZ=             -0.7954
 Traceless Quadrupole moment (field-independent basis, Debye-Ang):
   XX=             -2.7502   YY=              1.3906   ZZ=              1.3596
   XY=             -0.4166   XZ=              1.6024   YZ=             -0.7954
 Octapole moment (field-independent basis, Debye-Ang**2):
  XXX=             18.8078  YYY=             -2.4385  ZZZ=             -0.8990  XYY=              6.3193
  XXY=             -3.1738  XXZ=              1.6482  XZZ=              5.7405  YZZ=             -1.1363
  YYZ=             -0.1130  XYZ=             -0.9498
 Hexadecapole moment (field-independent basis, Debye-Ang**3):
 XXXX=           -207.4575 YYYY=            -56.9159 ZZZZ=            -29.3271 XXXY=             -1.8164
 XXXZ=              2.7773 YYYX=             -0.9155 YYYZ=             -0.9267 ZZZX=              0.5697
 ZZZY=             -0.2503 XXYY=            -40.5589 XXZZ=            -36.5767 YYZZ=            -12.7648
 XXYZ=             -1.3336 YYXZ=              0.5428 ZZXY=              0.3015
 N-N= 8.610957779554D+01 E-N=-7.911615574972D+02  KE= 2.267832133029D+02
  Exact polarizability:   0.000   0.000   0.000   0.000   0.000   0.000
 Approx polarizability:  14.423  -3.969  11.603  -0.136  -1.287  10.569
                          Isotropic Fermi Contact Couplings
        Atom                 a.u.       MegaHertz       Gauss      10(-4) cm-1
     1  C(13)              0.26624     299.30962     106.80111      99.83894
     2  C(13)             -0.03819     -42.92782     -15.31771     -14.31918
     3  O(17)              0.00124      -0.75118      -0.26804      -0.25057
     4  H(1)              -0.09900    -442.52851    -157.90517    -147.61162
     5  H(1)              -0.02048     -91.55033     -32.66743     -30.53790
     6  H(1)              -0.02050     -91.64637     -32.70170     -30.56994
     7  H(1)               0.00417      18.66102       6.65872       6.22465
     8  H(1)               0.00280      12.52594       4.46957       4.17820
     9  H(1)              -0.00173      -7.75508      -2.76720      -2.58682
    10  H(1)               0.21667     968.50585     345.58696     323.05878
 --------------------------------------------------------
       Center         ----  Spin Dipole Couplings  ----
                      3XX-RR        3YY-RR        3ZZ-RR
 --------------------------------------------------------
     1   Atom        0.410345     -0.010898     -0.399447
     2   Atom       -0.005444      0.002675      0.002769
     3   Atom        0.159052     -0.084384     -0.074668
     4   Atom        0.148165     -0.006454     -0.141712
     5   Atom       -0.035531     -0.015326      0.050858
     6   Atom       -0.034099     -0.001839      0.035938
     7   Atom        0.005870      0.005060     -0.010930
     8   Atom        0.005538      0.004034     -0.009571
     9   Atom        0.006826     -0.005513     -0.001313
    10   Atom       -0.023632     -0.000089      0.023722
 --------------------------------------------------------
                        XY            XZ            YZ
 --------------------------------------------------------
     1   Atom       -0.566945     -0.009743      0.006907
     2   Atom        0.016075      0.001305      0.001372
     3   Atom        0.001111     -0.044989     -0.011410
     4   Atom       -0.198478     -0.004128      0.002786
     5   Atom       -0.010795      0.013973      0.064874
     6   Atom       -0.005912     -0.018561     -0.070332
     7   Atom        0.010831     -0.006887     -0.001530
     8   Atom        0.009588      0.008232      0.003968
     9   Atom       -0.003047      0.006076     -0.008648
    10   Atom        0.033563      0.000322     -0.000250
 --------------------------------------------------------


 ---------------------------------------------------------------------------------
              Anisotropic Spin Dipole Couplings in Principal Axis System
 ---------------------------------------------------------------------------------

       Atom             a.u.   MegaHertz   Gauss  10(-4) cm-1        Axes

              Baa    -0.4051   -54.358   -19.396   -18.132  0.5706  0.8210 -0.0198
     1 C(13)  Bbb    -0.3996   -53.618   -19.132   -17.885  0.0194  0.0106  0.9998
              Bcc     0.8046   107.976    38.528    36.017  0.8210 -0.5708 -0.0099
 
              Baa    -0.0180    -2.411    -0.860    -0.804  0.7892 -0.6140 -0.0091
     2 C(13)  Bbb     0.0025     0.334     0.119     0.112 -0.0830 -0.1213  0.9891
              Bcc     0.0155     2.077     0.741     0.693  0.6085  0.7799  0.1467
 
              Baa    -0.0948     6.857     2.447     2.287  0.1164  0.7291  0.6745
     3 O(17)  Bbb    -0.0727     5.260     1.877     1.754  0.1421 -0.6843  0.7152
              Bcc     0.1675   -12.117    -4.324    -4.042  0.9830  0.0126 -0.1832
 
              Baa    -0.1421   -75.844   -27.063   -25.299  0.5634  0.8224  0.0788
     4 H(1)   Bbb    -0.1418   -75.640   -26.990   -25.231 -0.0349 -0.0717  0.9968
              Bcc     0.2839   151.485    54.053    50.530  0.8255 -0.5643 -0.0117
 
              Baa    -0.0645   -34.433   -12.286   -11.485  0.4977  0.7289 -0.4701
     5 H(1)   Bbb    -0.0264   -14.072    -5.021    -4.694  0.8659 -0.4490  0.2205
              Bcc     0.0909    48.504    17.308    16.179  0.0503  0.5168  0.8546
 
              Baa    -0.0644   -34.377   -12.266   -11.467  0.4758  0.6765  0.5621
     6 H(1)   Bbb    -0.0264   -14.112    -5.035    -4.707  0.8749 -0.4294 -0.2238
              Bcc     0.0909    48.489    17.302    16.174 -0.0900 -0.5983  0.7962
 
              Baa    -0.0137    -7.336    -2.618    -2.447  0.4042 -0.1595  0.9007
     7 H(1)   Bbb    -0.0039    -2.055    -0.733    -0.686 -0.5550  0.7399  0.3801
              Bcc     0.0176     9.391     3.351     3.133  0.7270  0.6535 -0.2105
 
              Baa    -0.0132    -7.040    -2.512    -2.348 -0.4100  0.0181  0.9119
     8 H(1)   Bbb    -0.0041    -2.181    -0.778    -0.727 -0.5566  0.7871 -0.2659
              Bcc     0.0173     9.220     3.290     3.076  0.7226  0.6166  0.3126
 
              Baa    -0.0124    -6.628    -2.365    -2.211 -0.0808  0.7646  0.6394
     9 H(1)   Bbb    -0.0005    -0.249    -0.089    -0.083  0.6645  0.5194 -0.5372
              Bcc     0.0129     6.878     2.454     2.294  0.7429 -0.3815  0.5501
 
              Baa    -0.0474   -25.307    -9.030    -8.441  0.8158 -0.5784 -0.0057
    10 H(1)   Bbb     0.0237    12.643     4.511     4.217  0.4945  0.6923  0.5256
              Bcc     0.0237    12.664     4.519     4.224 -0.3000 -0.4316  0.8507
 

 ---------------------------------------------------------------------------------

 No NMR shielding tensors so no spin-rotation constants.
 Leave Link  601 at Thu Jan 24 18:05:04 2019, MaxMem=   33554432 cpu:       0.2
 (Enter /home/programs/G09_64/g09/l701.exe)
 Compute integral second derivatives.
 ... and contract with generalized density number  0.
 Leave Link  701 at Thu Jan 24 18:05:04 2019, MaxMem=   33554432 cpu:       0.2
 (Enter /home/programs/G09_64/g09/l702.exe)
 L702 exits ... SP integral derivatives will be done elsewhere.
 Leave Link  702 at Thu Jan 24 18:05:04 2019, MaxMem=   33554432 cpu:       0.0
 (Enter /home/programs/G09_64/g09/l703.exe)
 Compute integral second derivatives, UseDBF=F ICtDFT=           0.
 Integral derivatives from FoFDir, PRISM(SPDF).
 Calling FoFJK, ICntrl=    100147 FMM=F ISym2X=0 I1Cent= 0 IOpClX= 1 NMat=1 NMatS=1 NMatT=0.
 FoFCou: FMM=F IPFlag=           0 FMFlag=      100000 FMFlg1=         800
         NFxFlg=           0 DoJE=F BraDBF=F KetDBF=F FulRan=T
         Omega=  0.000000  0.000000  1.000000  0.000000  0.000000 ICntrl=  100147 IOpCl=  1
         NMat0=    1 NMatS0=    1 NMatT0=    0 NMatD0=    1 NMtDS0=    0 NMtDT0=    0
         I1Cent=           0 NGrid=           0.
 Symmetry not used in FoFCou.
 Leave Link  703 at Thu Jan 24 18:05:04 2019, MaxMem=   33554432 cpu:       0.2
 (Enter /home/programs/G09_64/g09/l716.exe)
 Dipole        =-2.13421329D-01-2.37587327D-01 4.18367005D-01
 Polarizability= 0.00000000D+00 0.00000000D+00 0.00000000D+00
                 0.00000000D+00 0.00000000D+00 0.00000000D+00
 -------------------------------------------------------------------
 Center     Atomic                   Forces (Hartrees/Bohr)
 Number     Number              X              Y              Z
 -------------------------------------------------------------------
      1        6          -0.024042157   -0.017993851   -0.000357575
      2        6           0.017550882    0.010102812    0.009223196
      3        8           0.022409633    0.023495388   -0.043798971
      4        1          -0.033712309    0.023531456   -0.000089285
      5        1           0.001673157   -0.002533518   -0.000938905
      6        1           0.002839719   -0.002304341    0.000251763
      7        1          -0.002609747    0.005138541   -0.005176675
      8        1          -0.003111486    0.003571552    0.004963120
      9        1          -0.005070615   -0.025601203    0.035995656
     10        1           0.024072923   -0.017406837   -0.000072325
 -------------------------------------------------------------------
 Cartesian Forces:  Max     0.043798971 RMS     0.017368439
 Force constants in Cartesian coordinates: 
                1             2             3             4             5 
      1  0.345545D+00
      2  0.285848D+00  0.599253D+00
      3 -0.536966D-03 -0.406414D-02  0.849129D+00
      4 -0.215302D+00 -0.162045D+00 -0.923403D-02  0.730516D+00
      5 -0.152017D+00 -0.216409D+00 -0.577965D-02  0.149118D-02  0.824009D+00
      6 -0.146317D-01 -0.745235D-02 -0.129523D+00 -0.101199D-01 -0.341903D-01
      7 -0.608203D-01  0.977988D-02  0.354769D-02 -0.345238D+00  0.120211D+00
      8 -0.122329D-01  0.140167D-01  0.324678D-02  0.165537D+00 -0.155079D+00
      9  0.461489D-02  0.711231D-03  0.769078D-02  0.702102D-02  0.342583D-01
     10  0.147688D+00 -0.109453D+00 -0.307066D-02 -0.333478D-01  0.187471D-01
     11 -0.120845D+00  0.438219D-01  0.201363D-02  0.298632D-02 -0.136967D-02
     12 -0.243639D-02  0.147591D-02 -0.328691D-01 -0.440796D-03  0.481712D-03
     13 -0.452183D-01 -0.295825D-01 -0.140437D-01  0.111066D-02 -0.185530D-01
     14 -0.399118D-01 -0.166059D+00 -0.177076D+00  0.432092D-02 -0.969745D-02
     15 -0.261278D-01 -0.167566D+00 -0.376962D+00  0.145723D-02  0.398935D-02
     16 -0.481374D-01 -0.418168D-01  0.259022D-01  0.583321D-03 -0.210993D-01
     17 -0.521528D-01 -0.198785D+00  0.188785D+00  0.390434D-02 -0.113627D-01
     18  0.362861D-01  0.180290D+00 -0.336233D+00 -0.192206D-02 -0.696715D-02
     19  0.219036D-03 -0.226823D-01  0.303404D-01 -0.677108D-01  0.586636D-02
     20  0.120748D-03 -0.137741D-01  0.230039D-01  0.997120D-02 -0.237513D+00
     21 -0.549199D-03 -0.631309D-02  0.729266D-02 -0.146089D-01  0.189834D+00
     22  0.109204D-02 -0.183282D-01 -0.338829D-01 -0.669333D-01  0.250201D-02
     23 -0.153016D-02 -0.115947D-01 -0.273123D-01 -0.137023D-02 -0.178375D+00
     24  0.198422D-02  0.439432D-02  0.392283D-02  0.299589D-02 -0.158618D+00
     25  0.273005D-02  0.941039D-03 -0.110181D-02 -0.126353D-01  0.454770D-01
     26 -0.161285D-02  0.287372D-02 -0.144274D-02 -0.180074D-01 -0.169792D-01
     27  0.388294D-05 -0.702454D-03  0.219068D-03  0.249807D-01 -0.229636D-01
     28 -0.127796D+00  0.873395D-01  0.207969D-02  0.895809D-02 -0.262468D-02
     29  0.943340D-01 -0.533438D-01 -0.137417D-02 -0.678780D-02  0.277668D-02
     30  0.139300D-02 -0.773371D-03  0.733217D-02 -0.129032D-03 -0.448626D-04
                6             7             8             9            10 
      6  0.891595D+00
      7  0.852859D-01  0.469893D+00
      8 -0.105072D-01 -0.252472D+00  0.482786D+00
      9 -0.114508D+00 -0.220536D-01 -0.390464D+00  0.520754D+00
     10  0.107719D-02 -0.262247D-02 -0.523634D-02 -0.711864D-03 -0.113892D+00
     11 -0.285138D-03 -0.110846D-02  0.151836D-02  0.401416D-03  0.126548D+00
     12 -0.161387D-03 -0.138275D-05 -0.343566D-04  0.442842D-03  0.286647D-02
     13 -0.321248D-01  0.412816D-02  0.170677D-02  0.798940D-03 -0.145989D-01
     14 -0.229535D-01  0.918027D-03  0.147507D-02  0.947526D-03  0.785398D-02
     15  0.667841D-02  0.797367D-03  0.189602D-03 -0.379020D-04 -0.390308D-02
     16  0.300206D-01  0.300782D-02  0.587273D-03 -0.827719D-03 -0.151816D-01
     17  0.213187D-01  0.402057D-03  0.588949D-03 -0.780777D-03  0.790672D-02
     18  0.920748D-02 -0.463198D-03 -0.168786D-03 -0.344893D-04  0.396372D-02
     19 -0.102459D-01 -0.506721D-02  0.337009D-01 -0.369763D-01  0.114511D-02
     20  0.188045D+00  0.712271D-02 -0.146203D-01  0.168075D-01  0.113366D-02
     21 -0.310967D+00 -0.295254D-02 -0.400215D-02  0.101204D-01 -0.106532D-03
     22  0.471016D-02 -0.187518D-01  0.308534D-01  0.399750D-01  0.161998D-02
     23 -0.158635D+00  0.156160D-01 -0.987418D-02 -0.198163D-01  0.540209D-03
     24 -0.354500D+00  0.622052D-02 -0.303582D-02  0.262932D-02 -0.461968D-04
     25 -0.538034D-01 -0.450770D-01  0.365025D-01  0.795429D-02  0.741803D-03
     26  0.244486D-01  0.995616D-01 -0.319928D+00  0.358126D+00 -0.922146D-03
     27  0.224700D-02 -0.704248D-01  0.404749D+00 -0.427059D+00  0.503113D-03
     28 -0.168106D-03  0.548354D-03  0.105307D-02  0.205401D-03  0.284476D-01
     29  0.210468D-03 -0.307060D-04 -0.882965D-03 -0.190934D-03 -0.471181D-01
     30 -0.690861D-04  0.439875D-04  0.272361D-04  0.180980D-05 -0.572160D-03
               11            12            13            14            15 
     11 -0.150273D-01
     12 -0.216915D-02  0.691489D-01
     13  0.183115D-01  0.134522D-01  0.497636D-01
     14 -0.105409D-01 -0.860893D-02  0.326252D-01  0.164059D+00
     15  0.354202D-02  0.996386D-03  0.275143D-01  0.181249D+00  0.381608D+00
     16  0.205234D-01 -0.123924D-01  0.194389D-02  0.184301D-02 -0.180629D-02
     17 -0.115578D-01  0.801785D-02  0.239216D-02  0.180998D-01 -0.219153D-01
     18 -0.368187D-02  0.917069D-03  0.271839D-02  0.256928D-01 -0.146153D-01
     19 -0.508363D-03  0.339065D-03  0.124816D-02  0.132406D-02 -0.400578D-03
     20 -0.523682D-04 -0.158090D-03  0.162440D-02  0.158857D-02 -0.122398D-03
     21 -0.465247D-05  0.115123D-03  0.309806D-03 -0.211884D-03  0.934247D-03
     22 -0.400322D-03 -0.205515D-03 -0.483178D-02 -0.454174D-02  0.166268D-02
     23  0.316819D-04  0.152154D-03 -0.370269D-02 -0.181691D-02  0.964918D-03
     24  0.101246D-03  0.454367D-04  0.132877D-02  0.499744D-03  0.991830D-03
     25 -0.424931D-03  0.991041D-04 -0.215084D-03 -0.121079D-03  0.711390D-04
     26  0.282755D-03 -0.393685D-04 -0.809874D-04 -0.140140D-03 -0.206079D-03
     27 -0.272474D-03  0.319380D-04 -0.841897D-04  0.111655D-03 -0.109380D-03
     28 -0.450823D-01 -0.128033D-02  0.666956D-02 -0.431051D-02  0.735007D-03
     29 -0.710669D-02  0.882269D-03 -0.474080D-02  0.303194D-02 -0.125644D-03
     30  0.354972D-03 -0.386672D-01  0.130309D-03  0.349670D-03  0.515290D-03
               16            17            18            19            20 
     16  0.540554D-01
     17  0.452648D-01  0.199194D+00
     18 -0.384648D-01 -0.194530D+00  0.338559D+00
     19 -0.443314D-02 -0.431119D-02 -0.212115D-02  0.819127D-01
     20 -0.284531D-02 -0.164871D-02 -0.118142D-02 -0.184919D-01  0.247002D+00
     21 -0.183541D-02 -0.862609D-03  0.649923D-03  0.179543D-01 -0.204452D+00
     22  0.124668D-02  0.130466D-02  0.560260D-03  0.159641D-02 -0.192907D-02
     23  0.193049D-02  0.171709D-02  0.147915D-03 -0.773702D-03  0.194296D-01
     24 -0.395884D-04  0.314905D-03  0.109100D-02  0.236358D-03 -0.218307D-01
     25 -0.188586D-03 -0.206043D-03  0.314759D-03 -0.900460D-02  0.367524D-02
     26  0.579011D-03  0.520507D-03  0.244798D-03  0.555071D-02 -0.732373D-03
     27 -0.268299D-03 -0.448520D-04  0.216018D-04  0.103714D-02 -0.790762D-04
     28  0.710356D-02 -0.450472D-02 -0.872022D-03  0.943152D-04 -0.381713D-03
     29 -0.496670D-02  0.323373D-02  0.153424D-03  0.325313D-03  0.320800D-03
     30 -0.288407D-03 -0.303603D-03  0.436380D-03 -0.163274D-03 -0.333521D-04
               21            22            23            24            25 
     21  0.310105D+00
     22 -0.132160D-02  0.817886D-01
     23  0.277884D-01 -0.800287D-02  0.179332D+00
     24 -0.195108D-01 -0.124749D-01  0.177390D+00  0.362702D+00
     25  0.312273D-02  0.329210D-02 -0.248908D-02 -0.236265D-03  0.605117D-01
     26 -0.167575D-02 -0.182603D-02  0.980552D-03  0.730878D-03 -0.834512D-01
     27  0.125580D-02  0.803319D-03 -0.712974D-03  0.258414D-02  0.435605D-01
     28 -0.125904D-04 -0.118876D-03 -0.217973D-03  0.311893D-04 -0.155069D-03
     29 -0.100570D-03  0.368155D-03  0.169566D-03  0.537470D-04  0.966089D-04
     30  0.393984D-05  0.173479D-03  0.333270D-04  0.436518D-04  0.189798D-04
               26            27            28            29            30 
     26  0.333335D+00
     27 -0.380160D+00  0.420810D+00
     28  0.209310D-03 -0.111365D-03  0.762486D-01
     29 -0.212500D-03  0.750010D-04 -0.314800D-01  0.520133D-01
     30 -0.264254D-04  0.000000D+00 -0.606879D-03  0.416409D-03  0.304036D-01
 Force constants in internal coordinates: 
                1             2             3             4             5 
      1  0.464506D+00
      2  0.648945D-02  0.176752D-01
      3 -0.175034D-02 -0.154626D-02  0.487848D+00
      4 -0.154757D-02 -0.131707D-02 -0.601927D-02  0.483200D+00
      5  0.303583D-01 -0.162539D-02 -0.916489D-03 -0.265627D-03  0.549254D+00
      6 -0.277164D-03 -0.279660D-03  0.355210D-04 -0.787687D-03  0.991770D-02
      7 -0.171830D-03  0.482615D-04 -0.875466D-03  0.248605D-04  0.152911D-01
      8  0.582747D-03 -0.814964D-03 -0.132545D-03  0.220810D-03 -0.290666D-01
      9 -0.653914D-02  0.157969D+00 -0.135135D-02 -0.145299D-02  0.504144D-03
     10  0.707561D-02  0.649543D-02 -0.187643D-02 -0.203820D-02  0.230302D-02
     11  0.130302D-01 -0.836302D-02  0.404638D-02 -0.661474D-02 -0.233627D-02
     12  0.137868D-01 -0.887857D-02 -0.600646D-02  0.455342D-02 -0.173995D-02
     13 -0.102846D-01  0.663468D-02 -0.105463D-02  0.199311D-04  0.834292D-03
     14 -0.105957D-01  0.722976D-02 -0.451043D-04 -0.105264D-02  0.381293D-03
     15 -0.175887D-01  0.239524D-02  0.428343D-02  0.450950D-02  0.151451D-02
     16  0.106695D-01  0.834476D-02 -0.299936D-02 -0.154736D-02  0.185885D-01
     17  0.147097D-01 -0.278931D-02 -0.931880D-03  0.260980D-02 -0.194715D-01
     18  0.140090D-01 -0.316250D-02  0.286868D-02 -0.127722D-02 -0.235109D-01
     19 -0.147761D-01 -0.191597D-02  0.114731D-02 -0.256883D-03  0.107423D-01
     20 -0.151034D-01 -0.196080D-02  0.199200D-03  0.808942D-03  0.151919D-01
     21 -0.117317D-01  0.127341D-02 -0.313379D-03 -0.180177D-03 -0.753651D-03
     22 -0.385521D-02 -0.108830D-02 -0.115510D-03  0.675767D-03  0.651062D-01
     23 -0.125513D-02  0.919999D-03  0.502891D-03  0.532839D-03 -0.559297D-03
     24 -0.112627D-03  0.168649D-03 -0.662056D-03  0.639903D-03  0.420854D-04
     25  0.874310D-04  0.233488D-03 -0.908542D-03  0.993152D-03  0.105947D-02
     26 -0.212971D-02  0.126840D-02 -0.196275D-02  0.139431D-02  0.135144D-01
     27  0.154301D-02 -0.931388D-03 -0.112308D-02  0.201904D-02 -0.147355D-01
     28 -0.154629D-02  0.819884D-02 -0.136578D-02 -0.350192D-02  0.235595D-02
     29 -0.376343D-02  0.923376D-02 -0.241999D-02 -0.310077D-02  0.148109D-01
     30 -0.907065D-04  0.703397D-02 -0.158031D-02 -0.247603D-02 -0.134390D-01
     31  0.167845D-02 -0.834798D-02  0.330575D-02  0.133360D-02 -0.190393D-04
     32 -0.538690D-03 -0.731307D-02  0.225154D-02  0.173475D-02  0.124359D-01
     33  0.313403D-02 -0.951286D-02  0.309122D-02  0.235948D-02 -0.158140D-01
     34  0.577959D-03 -0.116744D-03 -0.137516D-02  0.139789D-02 -0.543453D-03
     35 -0.138278D-01 -0.124083D-03  0.684044D-03 -0.752379D-03  0.606237D-02
     36  0.153430D-01  0.382528D-03  0.325166D-03 -0.790972D-03 -0.629541D-02
                6             7             8             9            10 
      6  0.487030D+00
      7 -0.389331D-02  0.471251D+00
      8 -0.104209D-02  0.358803D-03  0.770591D+00
      9  0.353236D-03  0.138721D-03  0.314432D-03  0.978628D-01
     10 -0.931731D-03 -0.503567D-03 -0.703453D-03 -0.470097D-02  0.736052D-01
     11 -0.231195D-02  0.253764D-02 -0.256036D-03  0.500982D-02 -0.122423D-01
     12  0.193670D-02 -0.287655D-02  0.108264D-02  0.542478D-02 -0.126888D-01
     13  0.715915D-03 -0.171063D-03  0.257191D-03 -0.359517D-02 -0.296591D-01
     14  0.233315D-03  0.702400D-03 -0.114975D-03 -0.386662D-02 -0.305646D-01
     15  0.411442D-03  0.331638D-03 -0.410015D-03 -0.154578D-02  0.135763D-01
     16 -0.377710D-02 -0.343528D-02 -0.590379D-02 -0.317043D-02  0.142945D-01
     17  0.782566D-03 -0.463106D-02 -0.674246D-03  0.908815D-03 -0.529692D-02
     18 -0.376015D-02  0.222467D-02  0.213804D-02  0.112765D-02 -0.583822D-02
     19  0.390838D-02  0.121013D-03  0.609788D-02  0.885683D-03 -0.306866D-02
     20  0.447031D-03  0.242304D-02 -0.913422D-03  0.904440D-03 -0.311133D-02
     21  0.309359D-02  0.340314D-02 -0.408740D-03 -0.571436D-03  0.271156D-02
     22  0.134586D-02 -0.433427D-02  0.253031D-01  0.341708D-03 -0.549164D-03
     23 -0.130374D-03 -0.906998D-04 -0.559129D-04  0.746897D-03 -0.236693D-03
     24 -0.231837D-04  0.496081D-04  0.168593D-04  0.153312D-03  0.206243D-03
     25 -0.231288D-02  0.204184D-02 -0.242879D-02 -0.771904D-05 -0.131657D-03
     26  0.706584D-03 -0.296851D-02  0.104569D-02 -0.301779D-03  0.157104D-02
     27  0.266064D-02 -0.272001D-03  0.146673D-02  0.282200D-03 -0.213556D-02
     28 -0.316292D-02  0.276773D-02 -0.268166D-02 -0.482500D-02  0.382780D-02
     29 -0.143452D-03 -0.224261D-02  0.792830D-03 -0.511906D-02  0.553050D-02
     30  0.181061D-02  0.453894D-03  0.121386D-02 -0.453508D-02  0.182390D-02
     31 -0.295626D-02  0.292572D-02 -0.237283D-02  0.503256D-02 -0.367797D-02
     32  0.632055D-04 -0.208462D-02  0.110165D-02  0.473850D-02 -0.197528D-02
     33  0.201727D-02  0.611881D-03  0.152269D-02  0.532247D-02 -0.568187D-02
     34  0.290410D-02 -0.389037D-02  0.506577D-03  0.580395D-04 -0.554732D-03
     35  0.157425D-02  0.354021D-02  0.735465D-03  0.144486D-03 -0.725899D-04
     36 -0.441584D-02 -0.168786D-02 -0.169266D-02 -0.108940D-03 -0.633108D-04
               11            12            13            14            15 
     11  0.115692D+00
     12 -0.407635D-01  0.117820D+00
     13 -0.321303D-01  0.132465D-01  0.355532D-01
     14  0.130835D-01 -0.325770D-01  0.699779D-02  0.364944D-01
     15 -0.540629D-01 -0.548676D-01  0.109054D-01  0.112129D-01  0.854375D-01
     16 -0.108861D-01 -0.603094D-02 -0.667384D-03 -0.240942D-02  0.868041D-02
     17 -0.831109D-02  0.165020D-01  0.304564D-02 -0.253025D-02 -0.466838D-02
     18  0.182821D-01 -0.916980D-02 -0.312067D-02  0.340103D-02 -0.515467D-02
     19  0.623639D-02 -0.403126D-02 -0.624110D-03  0.169987D-02 -0.722912D-03
     20 -0.326672D-02  0.547265D-02  0.140199D-02 -0.172247D-03 -0.759407D-03
     21 -0.268808D-02 -0.197473D-02  0.204884D-03 -0.622675D-04  0.260486D-02
     22  0.505477D-03  0.361860D-03  0.126973D-03 -0.619494D-04 -0.517588D-03
     23 -0.191014D-03 -0.161856D-03  0.155751D-03  0.118130D-03  0.343864D-03
     24 -0.273721D-03  0.231889D-03 -0.741544D-05 -0.151383D-03  0.298329D-05
     25 -0.477381D-02  0.475272D-02 -0.485877D-02  0.502640D-02 -0.828577D-05
     26 -0.920934D-02  0.663826D-02 -0.408118D-02  0.399570D-02  0.150854D-02
     27 -0.622524D-02  0.885566D-02 -0.387145D-02  0.446899D-02 -0.149684D-02
     28  0.555850D-02 -0.715068D-02  0.389384D-02  0.877934D-03 -0.491399D-02
     29  0.112297D-02 -0.526514D-02  0.467143D-02 -0.152768D-03 -0.339716D-02
     30  0.410707D-02 -0.304774D-02  0.488117D-02  0.320525D-03 -0.640254D-02
     31  0.720183D-02 -0.552472D-02 -0.960205D-03 -0.384299D-02  0.469981D-02
     32  0.276630D-02 -0.363918D-02 -0.182613D-03 -0.487369D-02  0.621664D-02
     33  0.575040D-02 -0.142178D-02  0.271205D-04 -0.440040D-02  0.321125D-02
     34 -0.872824D-02  0.917837D-02  0.228854D-02 -0.192664D-02 -0.259446D-03
     35  0.341652D-02 -0.496916D-02 -0.643530D-03  0.139763D-02  0.107531D-02
     36  0.472244D-02 -0.308449D-02 -0.121859D-02  0.620346D-03 -0.121519D-02
               16            17            18            19            20 
     16  0.177726D+00
     17 -0.350734D-01  0.952339D-01
     18 -0.422335D-01 -0.156853D-01  0.975939D-01
     19 -0.663467D-01 -0.402491D-01  0.269685D-01  0.785365D-01
     20 -0.693481D-01  0.259841D-01 -0.411535D-01  0.913360D-02  0.844721D-01
     21  0.286446D-01 -0.295360D-01 -0.301139D-01 -0.448060D-02 -0.319320D-02
     22 -0.132504D-01 -0.796359D-02  0.685879D-02  0.208253D-01 -0.372808D-02
     23  0.428610D-03 -0.539176D-03 -0.360485D-03  0.232950D-03  0.125226D-03
     24  0.971665D-04 -0.244725D-03  0.174982D-03  0.824159D-04 -0.144937D-03
     25  0.742579D-03  0.398799D-02 -0.466440D-02 -0.162094D-01  0.154005D-01
     26  0.666548D-02 -0.651769D-02 -0.766268D-02  0.141405D-01  0.138036D-03
     27 -0.686443D-02  0.738312D-02  0.691737D-02  0.102246D-03 -0.134394D-01
     28  0.349300D-02  0.290058D-03 -0.309631D-02 -0.158127D-01  0.135536D-01
     29  0.941591D-02 -0.102156D-01 -0.609460D-02  0.145371D-01 -0.170886D-02
     30 -0.411401D-02  0.368519D-02  0.848546D-02  0.498927D-03 -0.152863D-01
     31 -0.248388D-02  0.232167D-02 -0.557408D-03 -0.143325D-01  0.149012D-01
     32  0.343902D-02 -0.818401D-02 -0.355569D-02  0.160174D-01 -0.361314D-03
     33 -0.100909D-01  0.571680D-02  0.110244D-01  0.197922D-02 -0.139388D-01
     34 -0.483943D-02  0.327864D-01 -0.302884D-01 -0.930598D-02  0.145381D-01
     35 -0.184146D-01 -0.380165D-01 -0.499435D-02  0.265761D-01  0.154747D-01
     36  0.179475D-01  0.616448D-02  0.353961D-01 -0.157149D-01 -0.266210D-01
               21            22            23            24            25 
     21  0.405953D-01
     22 -0.195586D-02  0.290968D+00
     23  0.124838D-03 -0.185918D-04  0.365078D-01
     24  0.216294D-04  0.436270D-04  0.228080D-03  0.148136D-01
     25  0.400164D-03 -0.745191D-02 -0.774500D-05  0.708583D-04  0.170530D-01
     26 -0.638091D-02  0.507984D-02  0.202484D-03  0.760212D-04 -0.143678D-03
     27  0.615753D-02  0.194054D-02 -0.214200D-03  0.583858D-04 -0.723238D-04
     28  0.101686D-02 -0.739211D-02 -0.606034D-04  0.559149D-04  0.874759D-02
     29 -0.576421D-02  0.513963D-02  0.149626D-03  0.610779D-04 -0.844910D-02
     30  0.677424D-02  0.200034D-02 -0.267058D-03  0.434425D-04 -0.837775D-02
     31 -0.283355D-03 -0.720388D-02  0.793705D-04  0.919092D-05  0.867182D-02
     32 -0.706443D-02  0.532786D-02  0.289600D-03  0.143538D-04 -0.852487D-02
     33  0.547402D-02  0.218856D-02 -0.127084D-03 -0.328155D-05 -0.845352D-02
     34 -0.844688D-03 -0.168891D-03 -0.111555D-03 -0.121789D-03 -0.343804D-02
     35  0.220118D-01  0.366962D-02  0.159416D-03  0.695115D-04  0.152535D-02
     36 -0.215873D-01 -0.367208D-02 -0.175425D-03  0.689326D-04  0.251523D-02
               26            27            28            29            30 
     26  0.174772D-01
     27  0.536971D-03  0.172767D-01
     28 -0.862644D-02 -0.914466D-02  0.185738D-01
     29  0.899447D-02 -0.853536D-02  0.119973D-02  0.186433D-01
     30 -0.794579D-02  0.820439D-02  0.681508D-03  0.111346D-02  0.172636D-01
     31 -0.928662D-02 -0.851623D-02  0.875653D-02 -0.920191D-02 -0.843152D-02
     32  0.833429D-02 -0.790694D-02 -0.861750D-02  0.824166D-02 -0.799957D-02
     33 -0.860597D-02  0.883282D-02 -0.913572D-02 -0.928818D-02  0.815061D-02
     34  0.317238D-02  0.373901D-02 -0.530248D-02  0.130795D-02  0.187457D-02
     35 -0.150090D-02 -0.149646D-02  0.237987D-02 -0.646380D-03 -0.641944D-03
     36 -0.185092D-02 -0.227802D-02  0.332131D-02 -0.104484D-02 -0.147193D-02
               31            32            33            34            35 
     31  0.184262D-01
     32  0.467778D-03  0.173269D-01
     33  0.123817D-02  0.108571D-02  0.185245D-01
     34 -0.526031D-02  0.135011D-02  0.191674D-02  0.227337D-01
     35  0.231833D-02 -0.707922D-03 -0.703485D-03 -0.849224D-02  0.310061D-01
     36  0.332023D-02 -0.104591D-02 -0.147301D-02 -0.941707D-02 -0.168792D-01
               36 
     36  0.299305D-01
 Leave Link  716 at Thu Jan 24 18:05:05 2019, MaxMem=   33554432 cpu:       0.0
 (Enter /home/programs/G09_64/g09/l103.exe)

 GradGradGradGradGradGradGradGradGradGradGradGradGradGradGradGradGradGrad
 Berny optimization.
 Red2BG is reusing G-inverse.
 Internal  Forces:  Max     0.043044748 RMS     0.011589751
 Search for a saddle point.
 Step number   1 out of a maximum of   46
 All quantities printed in internal units (Hartrees-Bohrs-Radians)
 Swaping is turned off.
 Second derivative matrix not updated -- analytic derivatives used.
 ITU=  0
     Eigenvalues ---   -0.11134   0.00177   0.00462   0.01481   0.03648
     Eigenvalues ---    0.03885   0.04246   0.06945   0.07598   0.10128
     Eigenvalues ---    0.14437   0.15094   0.16387   0.20833   0.22054
     Eigenvalues ---    0.25094   0.29157   0.46366   0.47244   0.47999
     Eigenvalues ---    0.48818   0.49255   0.57739   0.77536
 Eigenvectors required to have negative eigenvalues:
                          R2        R9        D9        D5        D7
   1                   -0.77652   0.60121  -0.06819   0.06581  -0.06411
                          D4        D8        D6        A5        A3
   1                    0.06165  -0.05995   0.05757   0.05025  -0.04726
 RFO step:  Lambda0=5.405773035D-03 Lambda=-1.05539234D-02.
 Linear search not attempted -- option 19 set.
 Iteration  1 RMS(Cart)=  0.04115072 RMS(Int)=  0.00254249
 Iteration  2 RMS(Cart)=  0.00202724 RMS(Int)=  0.00143698
 Iteration  3 RMS(Cart)=  0.00000762 RMS(Int)=  0.00143697
 Iteration  4 RMS(Cart)=  0.00000004 RMS(Int)=  0.00143697
 Variable       Old X    -DE/DX   Delta X   Delta X   Delta X     New X
                                 (Linear)    (Quad)   (Total)
    R1        2.82305   0.03303   0.00000   0.07704   0.07704   2.90010
    R2        2.62135   0.01141   0.00000  -0.18496  -0.18496   2.43639
    R3        2.04530   0.00193   0.00000   0.00641   0.00641   2.05171
    R4        2.04791   0.00117   0.00000   0.00523   0.00523   2.05314
    R5        2.68168   0.01717   0.00000   0.03194   0.03194   2.71362
    R6        2.05145   0.00741   0.00000   0.01444   0.01444   2.06589
    R7        2.06133   0.00620   0.00000   0.01149   0.01149   2.07282
    R8        1.80879   0.04304   0.00000   0.05869   0.05869   1.86748
    R9        1.68813  -0.02970   0.00000   0.04955   0.04955   1.73768
    A1        1.83910   0.00222   0.00000   0.04491   0.04570   1.88480
    A2        2.01146  -0.00067   0.00000  -0.03722  -0.04060   1.97086
    A3        2.02713  -0.00216   0.00000  -0.04743  -0.05065   1.97647
    A4        1.79123   0.00036   0.00000   0.04997   0.05057   1.84180
    A5        1.77737   0.00108   0.00000   0.06026   0.06118   1.83855
    A6        1.97599   0.00012   0.00000  -0.02991  -0.03579   1.94020
    A7        1.95842   0.00484   0.00000   0.01267   0.01273   1.97115
    A8        1.92852  -0.00251   0.00000  -0.01705  -0.01724   1.91127
    A9        1.92987  -0.00332   0.00000  -0.01911  -0.01925   1.91063
   A10        1.83544  -0.00003   0.00000   0.01769   0.01775   1.85319
   A11        1.93057   0.00031   0.00000   0.00730   0.00738   1.93794
   A12        1.87726   0.00070   0.00000  -0.00041  -0.00079   1.87646
   A13        1.89503  -0.02014   0.00000  -0.07963  -0.07963   1.81541
   A14        3.12062   0.00069   0.00000   0.01965   0.01965   3.14027
   A15        3.13037   0.00019   0.00000   0.00826   0.00826   3.13863
    D1       -3.03752   0.00000   0.00000  -0.01049  -0.01057  -3.04809
    D2       -0.99521   0.00137   0.00000   0.00850   0.00828  -0.98693
    D3        1.08118  -0.00146   0.00000  -0.01498  -0.01494   1.06623
    D4       -1.07653   0.00149   0.00000   0.05966   0.05809  -1.01844
    D5        0.96579   0.00286   0.00000   0.07864   0.07694   1.04272
    D6        3.04217   0.00003   0.00000   0.05516   0.05371   3.09588
    D7        1.29378  -0.00167   0.00000  -0.08922  -0.08755   1.20623
    D8       -2.94709  -0.00030   0.00000  -0.07023  -0.06870  -3.01579
    D9       -0.87071  -0.00313   0.00000  -0.09371  -0.09193  -0.96263
   D10       -1.05229  -0.00005   0.00000  -0.00487  -0.00482  -1.05711
   D11        3.13362   0.00034   0.00000  -0.00232  -0.00237   3.13126
   D12        1.11181  -0.00061   0.00000  -0.01508  -0.01509   1.09672
         Item               Value     Threshold  Converged?
 Maximum Force            0.043045     0.000450     NO 
 RMS     Force            0.011590     0.000300     NO 
 Maximum Displacement     0.116253     0.001800     NO 
 RMS     Displacement     0.041462     0.001200     NO 
 Predicted change in Energy=-2.748282D-03
 GradGradGradGradGradGradGradGradGradGradGradGradGradGradGradGradGradGrad

 Leave Link  103 at Thu Jan 24 18:05:05 2019, MaxMem=   33554432 cpu:       0.0
 (Enter /home/programs/G09_64/g09/l202.exe)
                          Input orientation:                          
 ---------------------------------------------------------------------
 Center     Atomic      Atomic             Coordinates (Angstroms)
 Number     Number       Type             X           Y           Z
 ---------------------------------------------------------------------
      1          6           0       -1.180210   -0.413046   -0.011034
      2          6           0        0.017256    0.545030    0.046957
      3          8           0        1.278197   -0.125377   -0.103485
      4          1           0       -2.257820    0.294139    0.018892
      5          1           0       -1.227287   -0.975418   -0.938560
      6          1           0       -1.244549   -1.071599    0.850707
      7          1           0       -0.047512    1.260623   -0.776975
      8          1           0       -0.016052    1.115659    0.983141
      9          1           0        1.307557   -0.753805    0.658625
     10          1           0       -3.025716    0.799618    0.038553
 ---------------------------------------------------------------------
                    Distance matrix (angstroms):
                    1          2          3          4          5
     1  C    0.000000
     2  C    1.534665   0.000000
     3  O    2.476907   1.435984   0.000000
     4  H    1.289283   2.289041   3.562919   0.000000
     5  H    1.085718   2.198157   2.774414   1.894858   0.000000
     6  H    1.086476   2.202648   2.858333   1.893113   1.791934
     7  H    2.161213   1.093221   2.032754   2.540267   2.533349
     8  H    2.163466   1.096890   2.096666   2.574917   3.087495
     9  H    2.598758   1.930281   0.988229   3.770856   3.004255
    10  H    2.208824   3.053615   4.404482   0.919543   2.709215
                    6          7          8          9         10
     6  H    0.000000
     7  H    3.085694   0.000000
     8  H    2.512139   1.766356   0.000000
     9  H    2.578979   2.820475   2.313470   0.000000
    10  H    2.708062   3.122068   3.170205   4.644875   0.000000
 Symmetry turned off by external request.
 Stoichiometry    C2H7O(2)
 Framework group  C1[X(C2H7O)]
 Deg. of freedom    24
 Full point group                 C1      NOp   1
 Rotational constants (GHZ):     31.8066705      7.6679178      6.8121179
 Leave Link  202 at Thu Jan 24 18:05:05 2019, MaxMem=   33554432 cpu:       0.0
 (Enter /home/programs/G09_64/g09/l301.exe)
 Standard basis: STO-3G (5D, 7F)
 Ernie: Thresh=  0.10000D-02 Tol=  0.10000D-05 Strict=F.
 Integral buffers will be    131072 words long.
 Raffenetti 2 integral format.
 Two-electron integral symmetry is turned off.
    22 basis functions,    66 primitive gaussians,    22 cartesian basis functions
    14 alpha electrons       13 beta electrons
       nuclear repulsion energy        85.2451013268 Hartrees.
 IExCor=    0 DFT=F Ex=HF Corr=None ExCW=0 ScaHFX=  1.000000
 ScaDFX=  1.000000  1.000000  1.000000  1.000000 ScalE2=  1.000000  1.000000
 IRadAn=      0 IRanWt=     -1 IRanGd=            0 ICorTp=0
 NAtoms=   10 NActive=   10 NUniq=   10 SFac= 1.00D+00 NAtFMM=   50 NAOKFM=F Big=F
 Leave Link  301 at Thu Jan 24 18:05:05 2019, MaxMem=   33554432 cpu:       0.1
 (Enter /home/programs/G09_64/g09/l302.exe)
 NPDir=0 NMtPBC=     1 NCelOv=     1 NCel=       1 NClECP=     1 NCelD=      1
         NCelK=      1 NCelE2=     1 NClLst=     1 CellRange=     0.0.
 One-electron integrals computed using PRISM.
 NBasis=    22 RedAO= T  NBF=    22
 NBsUse=    22 1.00D-06 NBFU=    22
 Leave Link  302 at Thu Jan 24 18:05:05 2019, MaxMem=   33554432 cpu:       0.1
 (Enter /home/programs/G09_64/g09/l303.exe)
 DipDrv:  MaxL=1.
 Leave Link  303 at Thu Jan 24 18:05:05 2019, MaxMem=   33554432 cpu:       0.1
 (Enter /home/programs/G09_64/g09/l401.exe)
 Initial guess read from the read-write file.
 B after Tr=     0.000000    0.000000    0.000000
         Rot=    1.000000    0.000000    0.000000    0.000000 Ang=   0.00 deg.
 Guess basis will be translated and rotated to current coordinates.
 Initial guess <Sx>= 0.0000 <Sy>= 0.0000 <Sz>= 0.5000 <S**2>= 0.7892 S= 0.5194
 Generating alternative initial guess.
 Harris functional with IExCor=  205 diagonalized for initial guess.
 ExpMin= 1.69D-01 ExpMax= 1.31D+02 ExpMxC= 1.31D+02 IAcc=1 IRadAn=         1 AccDes= 0.00D+00
 HarFok:  IExCor=  205 AccDes= 0.00D+00 IRadAn=         1 IDoV= 1
 ScaDFX=  1.000000  1.000000  1.000000  1.000000
 FoFCou: FMM=F IPFlag=           0 FMFlag=      100000 FMFlg1=           0
         NFxFlg=           0 DoJE=T BraDBF=F KetDBF=T FulRan=T
         Omega=  0.000000  0.000000  1.000000  0.000000  0.000000 ICntrl=     500 IOpCl=  0
         NMat0=    1 NMatS0=    1 NMatT0=    0 NMatD0=    1 NMtDS0=    0 NMtDT0=    0
         I1Cent=           4 NGrid=           0.
 Symmetry not used in FoFCou.
 Harris En= -152.786286096499    
 Leave Link  401 at Thu Jan 24 18:05:05 2019, MaxMem=   33554432 cpu:       0.3
 (Enter /home/programs/G09_64/g09/l502.exe)
 UHF open shell SCF:
 Requested convergence on RMS density matrix=1.00D-08 within 128 cycles.
 Requested convergence on MAX density matrix=1.00D-06.
 Requested convergence on             energy=1.00D-06.
 No special actions if energy rises.
 Using DIIS extrapolation, IDIIS=  1040.
 Two-electron integral symmetry not used.
 Keep R1 and R2 ints in memory in canonical form, NReq=884165.
 IEnd=       19882 IEndB=       19882 NGot=    33554432 MDV=    33487407
 LenX=    33487407 LenY=    33486482
 Symmetry not used in FoFDir.
 MinBra= 0 MaxBra= 1 Meth= 1.
 IRaf=       0 NMat=   1 IRICut=       1 DoRegI=T DoRafI=F ISym2E= 0 JSym2E=0.

 Cycle   1  Pass 1  IDiag  1:
 E= -152.557937592661    
 DIIS: error= 1.17D-02 at cycle   1 NSaved=   1.
 NSaved= 1 IEnMin= 1 EnMin= -152.557937592661     IErMin= 1 ErrMin= 1.17D-02
 ErrMax= 1.17D-02 EMaxC= 1.00D-01 BMatC= 6.54D-03 BMatP= 6.54D-03
 IDIUse=3 WtCom= 8.83D-01 WtEn= 1.17D-01
 Coeff-Com:  0.100D+01
 Coeff-En:   0.100D+01
 Coeff:      0.100D+01
 Recover alternate guess density for next cycle.
 RMSDP=1.85D-02 MaxDP=1.62D-01              OVMax= 0.00D+00

 Cycle   2  Pass 1  IDiag  1:
 E= -152.469673442380     Delta-E=        0.088264150281 Rises=F Damp=F
 Switch densities from cycles 1 and 2 for lowest energy.
 DIIS: error= 4.05D-02 at cycle   2 NSaved=   2.
 NSaved= 2 IEnMin= 1 EnMin= -152.557937592661     IErMin= 1 ErrMin= 1.17D-02
 ErrMax= 4.05D-02 EMaxC= 1.00D+00 BMatC= 2.93D-01 BMatP= 6.54D-03
 IDIUse=1 WtCom= 1.00D+00 WtEn= 0.00D+00
 Coeff-Com:  0.100D+01 0.102D-03
 Coeff:      0.100D+01 0.102D-03
 Gap=     0.901 Goal=   None    Shift=    0.000
 Gap=     0.564 Goal=   None    Shift=    0.000
 RMSDP=1.08D-01 MaxDP=1.05D+00 DE= 8.83D-02 OVMax= 0.00D+00

 Cycle   3  Pass 1  IDiag  1:
 E= -152.562297422910     Delta-E=       -0.092623980531 Rises=F Damp=F
 DIIS: error= 6.57D-03 at cycle   3 NSaved=   3.
 NSaved= 3 IEnMin= 3 EnMin= -152.562297422910     IErMin= 3 ErrMin= 6.57D-03
 ErrMax= 6.57D-03 EMaxC= 1.00D+00 BMatC= 1.46D-03 BMatP= 6.54D-03
 IDIUse=1 WtCom= 1.00D+00 WtEn= 0.00D+00
 Coeff-Com: -0.512D+00 0.547D-02 0.151D+01
 Coeff:     -0.512D+00 0.547D-02 0.151D+01
 Gap=     0.874 Goal=   None    Shift=    0.000
 Gap=     0.592 Goal=   None    Shift=    0.000
 RMSDP=2.73D-03 MaxDP=2.61D-02 DE=-9.26D-02 OVMax= 0.00D+00

 Cycle   4  Pass 1  IDiag  1:
 E= -152.563879274256     Delta-E=       -0.001581851346 Rises=F Damp=F
 DIIS: error= 2.57D-03 at cycle   4 NSaved=   4.
 NSaved= 4 IEnMin= 4 EnMin= -152.563879274256     IErMin= 4 ErrMin= 2.57D-03
 ErrMax= 2.57D-03 EMaxC= 1.00D+00 BMatC= 2.41D-04 BMatP= 1.46D-03
 IDIUse=1 WtCom= 1.00D+00 WtEn= 0.00D+00
 Coeff-Com:  0.569D-01 0.606D-03-0.488D+00 0.143D+01
 Coeff:      0.569D-01 0.606D-03-0.488D+00 0.143D+01
 Gap=     0.879 Goal=   None    Shift=    0.000
 Gap=     0.586 Goal=   None    Shift=    0.000
 RMSDP=1.27D-03 MaxDP=1.40D-02 DE=-1.58D-03 OVMax= 0.00D+00

 Cycle   5  Pass 1  IDiag  1:
 E= -152.564199428377     Delta-E=       -0.000320154121 Rises=F Damp=F
 DIIS: error= 8.88D-04 at cycle   5 NSaved=   5.
 NSaved= 5 IEnMin= 5 EnMin= -152.564199428377     IErMin= 5 ErrMin= 8.88D-04
 ErrMax= 8.88D-04 EMaxC= 1.00D+00 BMatC= 4.36D-05 BMatP= 2.41D-04
 IDIUse=1 WtCom= 1.00D+00 WtEn= 0.00D+00
 Coeff-Com:  0.928D-01-0.292D-02-0.177D+00-0.427D+00 0.151D+01
 Coeff:      0.928D-01-0.292D-02-0.177D+00-0.427D+00 0.151D+01
 Gap=     0.879 Goal=   None    Shift=    0.000
 Gap=     0.588 Goal=   None    Shift=    0.000
 RMSDP=7.01D-04 MaxDP=8.19D-03 DE=-3.20D-04 OVMax= 0.00D+00

 Cycle   6  Pass 1  IDiag  1:
 E= -152.564257399528     Delta-E=       -0.000057971150 Rises=F Damp=F
 DIIS: error= 1.60D-04 at cycle   6 NSaved=   6.
 NSaved= 6 IEnMin= 6 EnMin= -152.564257399528     IErMin= 6 ErrMin= 1.60D-04
 ErrMax= 1.60D-04 EMaxC= 1.00D+00 BMatC= 2.93D-06 BMatP= 4.36D-05
 IDIUse=1 WtCom= 1.00D+00 WtEn= 0.00D+00
 Coeff-Com: -0.298D-01 0.920D-03 0.897D-01 0.445D-02-0.429D+00 0.136D+01
 Coeff:     -0.298D-01 0.920D-03 0.897D-01 0.445D-02-0.429D+00 0.136D+01
 Gap=     0.879 Goal=   None    Shift=    0.000
 Gap=     0.588 Goal=   None    Shift=    0.000
 RMSDP=1.32D-04 MaxDP=1.09D-03 DE=-5.80D-05 OVMax= 0.00D+00

 Cycle   7  Pass 1  IDiag  1:
 E= -152.564260320538     Delta-E=       -0.000002921010 Rises=F Damp=F
 DIIS: error= 8.62D-05 at cycle   7 NSaved=   7.
 NSaved= 7 IEnMin= 7 EnMin= -152.564260320538     IErMin= 7 ErrMin= 8.62D-05
 ErrMax= 8.62D-05 EMaxC= 1.00D+00 BMatC= 5.16D-07 BMatP= 2.93D-06
 IDIUse=1 WtCom= 1.00D+00 WtEn= 0.00D+00
 Coeff-Com:  0.734D-02-0.864D-04-0.318D-01 0.321D-01 0.110D+00-0.794D+00
 Coeff-Com:  0.168D+01
 Coeff:      0.734D-02-0.864D-04-0.318D-01 0.321D-01 0.110D+00-0.794D+00
 Coeff:      0.168D+01
 Gap=     0.879 Goal=   None    Shift=    0.000
 Gap=     0.588 Goal=   None    Shift=    0.000
 RMSDP=5.41D-05 MaxDP=3.78D-04 DE=-2.92D-06 OVMax= 0.00D+00

 Cycle   8  Pass 1  IDiag  1:
 E= -152.564260863737     Delta-E=       -0.000000543200 Rises=F Damp=F
 DIIS: error= 3.14D-05 at cycle   8 NSaved=   8.
 NSaved= 8 IEnMin= 8 EnMin= -152.564260863737     IErMin= 8 ErrMin= 3.14D-05
 ErrMax= 3.14D-05 EMaxC= 1.00D+00 BMatC= 8.97D-08 BMatP= 5.16D-07
 IDIUse=1 WtCom= 1.00D+00 WtEn= 0.00D+00
 Coeff-Com:  0.251D-02-0.666D-04-0.465D-02-0.119D-01 0.402D-01 0.102D-01
 Coeff-Com: -0.507D+00 0.147D+01
 Coeff:      0.251D-02-0.666D-04-0.465D-02-0.119D-01 0.402D-01 0.102D-01
 Coeff:     -0.507D+00 0.147D+01
 Gap=     0.879 Goal=   None    Shift=    0.000
 Gap=     0.588 Goal=   None    Shift=    0.000
 RMSDP=2.43D-05 MaxDP=1.70D-04 DE=-5.43D-07 OVMax= 0.00D+00

 Cycle   9  Pass 1  IDiag  1:
 E= -152.564260963255     Delta-E=       -0.000000099518 Rises=F Damp=F
 DIIS: error= 1.42D-05 at cycle   9 NSaved=   9.
[...]
     31 -0.430021D-03 -0.753262D-02  0.135620D-03 -0.125300D-03  0.758669D-02
     32 -0.768007D-02  0.590356D-02  0.264958D-03 -0.134121D-03 -0.872425D-02
     33  0.590780D-02  0.196366D-02  0.557989D-05 -0.141896D-03 -0.875067D-02
     34 -0.826945D-03 -0.293653D-03 -0.377379D-04 -0.864728D-04 -0.325218D-02
     35  0.209533D-01  0.410949D-02  0.118624D-03  0.434254D-04  0.137595D-02
     36 -0.206483D-01 -0.397300D-02 -0.151698D-03  0.508507D-04  0.226571D-02
               26            27            28            29            30 
     26  0.183598D-01
     27  0.186902D-02  0.183570D-01
     28 -0.890989D-02 -0.965707D-02  0.195394D-01
     29  0.804708D-02 -0.916444D-02  0.302171D-02  0.197719D-01
     30 -0.844368D-02  0.732354D-02  0.227452D-02  0.256041D-02  0.183276D-01
     31 -0.963056D-02 -0.893472D-02  0.744578D-02 -0.977148D-02 -0.907564D-02
     32  0.732641D-02 -0.844209D-02 -0.907191D-02  0.697875D-02 -0.878975D-02
     33 -0.916436D-02  0.804589D-02 -0.981909D-02 -0.102328D-01  0.697747D-02
     34  0.345618D-02  0.393211D-02 -0.545109D-02  0.125728D-02  0.173320D-02
     35 -0.169496D-02 -0.153246D-02  0.241217D-02 -0.658741D-03 -0.496234D-03
     36 -0.180427D-02 -0.229431D-02  0.315759D-02 -0.912384D-03 -0.140243D-02
               31            32            33            34            35 
     31  0.194686D-01
     32  0.225133D-02  0.183020D-01
     33  0.294717D-02  0.253348D-02  0.197437D-01
     34 -0.540387D-02  0.130449D-02  0.178042D-02  0.224432D-01
     35  0.221896D-02 -0.851951D-03 -0.689444D-03 -0.804240D-02  0.310960D-01
     36  0.328963D-02 -0.780343D-03 -0.127039D-02 -0.900385D-02 -0.170141D-01
               36 
     36  0.301063D-01
 Leave Link  716 at Thu Jan 24 18:05:11 2019, MaxMem=   33554432 cpu:       0.1
 (Enter /home/programs/G09_64/g09/l103.exe)

 GradGradGradGradGradGradGradGradGradGradGradGradGradGradGradGradGradGrad
 Berny optimization.
 Red2BG is reusing G-inverse.
 Internal  Forces:  Max     0.000050050 RMS     0.000011714
 Search for a saddle point.
 Step number   1 out of a maximum of    2
 All quantities printed in internal units (Hartrees-Bohrs-Radians)
 Swaping is turned off.
 Second derivative matrix not updated -- analytic derivatives used.
 ITU=  0
     Eigenvalues ---   -0.11902   0.00182   0.00510   0.01570   0.03850
     Eigenvalues ---    0.04675   0.05307   0.07003   0.07305   0.11917
     Eigenvalues ---    0.14653   0.15203   0.17221   0.21161   0.23947
     Eigenvalues ---    0.25326   0.30415   0.39970   0.45441   0.47018
     Eigenvalues ---    0.47355   0.48548   0.53919   0.64492
 Eigenvectors required to have negative eigenvalues:
                          R9        R2        D5        D9        D4
   1                    0.70748  -0.68981   0.05158  -0.05124   0.04813
                          D7        A2        D6        A3        D8
   1                   -0.04791  -0.04492   0.04479  -0.04458  -0.04445
 Angle between quadratic step and forces=  83.68 degrees.
 Linear search not attempted -- option 19 set.
 Iteration  1 RMS(Cart)=  0.00033694 RMS(Int)=  0.00000005
 Iteration  2 RMS(Cart)=  0.00000006 RMS(Int)=  0.00000000
 Variable       Old X    -DE/DX   Delta X   Delta X   Delta X     New X
                                 (Linear)    (Quad)   (Total)
    R1        2.90895   0.00004   0.00000   0.00009   0.00009   2.90904
    R2        2.44010  -0.00003   0.00000   0.00008   0.00008   2.44018
    R3        2.05170   0.00000   0.00000   0.00000   0.00000   2.05170
    R4        2.05323   0.00000   0.00000   0.00000   0.00000   2.05323
    R5        2.71574   0.00000   0.00000   0.00001   0.00001   2.71575
    R6        2.06660   0.00000   0.00000   0.00000   0.00000   2.06660
    R7        2.07338   0.00000   0.00000   0.00000   0.00000   2.07338
    R8        1.87357   0.00005   0.00000   0.00008   0.00008   1.87364
    R9        1.75770   0.00001   0.00000  -0.00016  -0.00016   1.75753
    A1        1.88360   0.00000   0.00000  -0.00002  -0.00002   1.88358
    A2        1.97196   0.00001   0.00000   0.00003   0.00003   1.97199
    A3        1.97545   0.00000   0.00000   0.00005   0.00005   1.97550
    A4        1.84563   0.00000   0.00000  -0.00006  -0.00006   1.84557
    A5        1.84047   0.00000   0.00000  -0.00005  -0.00005   1.84042
    A6        1.93613   0.00000   0.00000   0.00003   0.00003   1.93616
    A7        1.97093   0.00000   0.00000  -0.00002  -0.00002   1.97091
    A8        1.91077   0.00000   0.00000   0.00000   0.00000   1.91077
    A9        1.90943   0.00000   0.00000   0.00000   0.00000   1.90943
   A10        1.85583   0.00000   0.00000   0.00000   0.00000   1.85583
   A11        1.93826   0.00000   0.00000   0.00001   0.00001   1.93827
   A12        1.87547   0.00000   0.00000   0.00001   0.00001   1.87549
   A13        1.81455   0.00000   0.00000   0.00000   0.00000   1.81456
   A14        3.14437   0.00000   0.00000  -0.00001  -0.00001   3.14436
   A15        3.14361   0.00000   0.00000   0.00000   0.00000   3.14361
    D1       -3.09557   0.00000   0.00000   0.00060   0.00060  -3.09496
    D2       -1.03157   0.00000   0.00000   0.00059   0.00059  -1.03098
    D3        1.01940   0.00000   0.00000   0.00060   0.00060   1.02000
    D4       -1.06135   0.00000   0.00000   0.00053   0.00053  -1.06082
    D5        1.00264   0.00000   0.00000   0.00052   0.00052   1.00316
    D6        3.05361   0.00000   0.00000   0.00053   0.00053   3.05414
    D7        1.15774   0.00000   0.00000   0.00065   0.00065   1.15839
    D8       -3.06145   0.00000   0.00000   0.00063   0.00063  -3.06081
    D9       -1.01048   0.00000   0.00000   0.00065   0.00065  -1.00983
   D10       -1.06962   0.00000   0.00000  -0.00054  -0.00054  -1.07015
   D11        3.11777   0.00000   0.00000  -0.00052  -0.00052   3.11725
   D12        1.08272   0.00000   0.00000  -0.00054  -0.00054   1.08218
         Item               Value     Threshold  Converged?
 Maximum Force            0.000050     0.000450     YES
 RMS     Force            0.000012     0.000300     YES
 Maximum Displacement     0.000820     0.001800     YES
 RMS     Displacement     0.000337     0.001200     YES
 Predicted change in Energy=-7.802932D-09
 Optimization completed.
    -- Stationary point found.
                           ----------------------------
                           !   Optimized Parameters   !
                           ! (Angstroms and Degrees)  !
 --------------------------                            --------------------------
 ! Name  Definition              Value          Derivative Info.                !
 --------------------------------------------------------------------------------
 ! R1    R(1,2)                  1.5393         -DE/DX =    0.0                 !
 ! R2    R(1,4)                  1.2912         -DE/DX =    0.0                 !
 ! R3    R(1,5)                  1.0857         -DE/DX =    0.0                 !
 ! R4    R(1,6)                  1.0865         -DE/DX =    0.0                 !
 ! R5    R(2,3)                  1.4371         -DE/DX =    0.0                 !
 ! R6    R(2,7)                  1.0936         -DE/DX =    0.0                 !
 ! R7    R(2,8)                  1.0972         -DE/DX =    0.0                 !
 ! R8    R(3,9)                  0.9914         -DE/DX =    0.0001              !
 ! R9    R(4,10)                 0.9301         -DE/DX =    0.0                 !
 ! A1    A(2,1,4)              107.9222         -DE/DX =    0.0                 !
 ! A2    A(2,1,5)              112.9852         -DE/DX =    0.0                 !
 ! A3    A(2,1,6)              113.1847         -DE/DX =    0.0                 !
 ! A4    A(4,1,5)              105.7467         -DE/DX =    0.0                 !
 ! A5    A(4,1,6)              105.4514         -DE/DX =    0.0                 !
 ! A6    A(5,1,6)              110.9321         -DE/DX =    0.0                 !
 ! A7    A(1,2,3)              112.926          -DE/DX =    0.0                 !
 ! A8    A(1,2,7)              109.4788         -DE/DX =    0.0                 !
 ! A9    A(1,2,8)              109.4024         -DE/DX =    0.0                 !
 ! A10   A(3,2,7)              106.3315         -DE/DX =    0.0                 !
 ! A11   A(3,2,8)              111.0544         -DE/DX =    0.0                 !
 ! A12   A(7,2,8)              107.4568         -DE/DX =    0.0                 !
 ! A13   A(2,3,9)              103.9663         -DE/DX =    0.0                 !
 ! A14   L(1,4,10,2,-1)        180.1593         -DE/DX =    0.0                 !
 ! A15   L(1,4,10,2,-2)        180.1157         -DE/DX =    0.0                 !
 ! D1    D(4,1,2,3)           -177.3628         -DE/DX =    0.0                 !
 ! D2    D(4,1,2,7)            -59.1047         -DE/DX =    0.0                 !
 ! D3    D(4,1,2,8)             58.4072         -DE/DX =    0.0                 !
 ! D4    D(5,1,2,3)            -60.8109         -DE/DX =    0.0                 !
 ! D5    D(5,1,2,7)             57.4472         -DE/DX =    0.0                 !
 ! D6    D(5,1,2,8)            174.9591         -DE/DX =    0.0                 !
 ! D7    D(6,1,2,3)             66.3339         -DE/DX =    0.0                 !
 ! D8    D(6,1,2,7)           -175.408          -DE/DX =    0.0                 !
 ! D9    D(6,1,2,8)            -57.8961         -DE/DX =    0.0                 !
 ! D10   D(1,2,3,9)            -61.2847         -DE/DX =    0.0                 !
 ! D11   D(7,2,3,9)            178.6351         -DE/DX =    0.0                 !
 ! D12   D(8,2,3,9)             62.0351         -DE/DX =    0.0                 !
 --------------------------------------------------------------------------------
 GradGradGradGradGradGradGradGradGradGradGradGradGradGradGradGradGradGrad

 Leave Link  103 at Thu Jan 24 18:05:11 2019, MaxMem=   33554432 cpu:       0.0
 (Enter /home/programs/G09_64/g09/l9999.exe)
 1\1\GINC-AF2CIQUS\Freq\UHF\STO-3G\C2H7O1(2)\RAMOS\24-Jan-2019\0\\#P Ge
 om=AllCheck Guess=TCheck SCRF=Check GenChk UHF/STO-3G Freq\\--\\0,2\C,
 -1.1812341572,-0.4150057868,-0.0247925532\C,0.0213749251,0.5439636045,
 0.0360489614\O,1.2835564456,-0.1326768435,-0.0836967607\H,-2.258519237
 6,0.2943643681,0.0348937017\H,-1.2402322097,-0.9621934466,-0.960675562
 6\H,-1.232505075,-1.091213297,0.8241192208\H,-0.0307502226,1.247708230
 3,-0.7994060941\H,-0.0257081847,1.1292851519,0.9628719892\H,1.30382467
 06,-0.7415194364,0.698524388\H,-3.0359429545,0.8031084556,0.0789337095
 \\Version=AM64L-G09RevB.01\HF=-152.5643353\S2=0.787516\S2-1=0.\S2A=0.7
 50351\RMSD=6.716e-10\RMSF=1.755e-05\ZeroPoint=0.0917617\Thermal=0.0964
 067\Dipole=-0.3084731,-0.1537774,0.4089868\DipoleDeriv=0.3138617,-0.13
 44045,-0.0129809,-0.2124158,0.0953995,-0.0006368,-0.0204792,-0.0092548
 ,0.0088055,0.418122,-0.0187294,0.0795592,0.1269212,0.2698801,0.0431089
 ,0.0881304,0.0394452,0.1863482,-0.4731092,-0.00318,-0.09446,-0.0405178
 ,-0.3117613,-0.224232,-0.1325062,-0.2000133,-0.1186909,-0.4292722,0.24
 60458,0.0159906,0.2763103,-0.131202,-0.0136218,0.0236869,-0.0145067,0.
 0315414,-0.0400728,0.0054544,0.0063983,-0.021861,-0.0142828,-0.0357591
 ,-0.0224533,0.0039695,0.0010739,-0.049517,0.0196965,-0.0212272,-0.0268
 716,-0.0254089,0.0319838,0.0178043,0.0051148,-0.0166363,-0.0272978,-0.
 0091764,0.0096614,-0.0063688,-0.0087111,0.0295429,0.0002651,0.0244427,
 0.0002044,-0.0832288,-0.0016942,-0.0457305,-0.0002531,-0.0333691,-0.02
 70977,0.002822,-0.0567158,-0.0503409,0.196381,0.0073854,0.0707282,0.03
 39877,0.1071166,0.1917993,0.0523493,0.2021527,-0.0223736,0.174133,-0.1
 113975,-0.0079391,-0.128931,0.052339,0.0049124,-0.0096192,0.0053658,-0
 .0199317\Polar=21.4127985,-5.6476766,15.4690464,0.4701568,-1.6263854,1
 2.9183088\PolarDeriv=1.804554,-3.0214032,0.5569295,-0.3177852,-0.00860
 37,-0.1662627,-2.5083876,0.2380027,0.5181727,-0.0329398,-0.2911093,1.9
 994316,-0.158266,0.0191851,-0.2557964,0.1315909,2.077137,0.4139922,-4.
 5134233,3.5850524,-0.4747361,0.0079224,0.3332649,-0.1107619,4.3575283,
 -0.2477878,-0.7789235,0.2060716,0.2537771,-1.9782849,0.6712176,-0.2850
 073,0.321362,-0.1125149,-2.5984613,-0.2755744,7.550906,-1.5229221,0.45
 56103,-1.3638035,-0.2867521,0.2008985,-1.2288834,1.7242564,0.5885292,0
 .5666615,-1.7545301,0.7874588,-1.501731,1.3189579,-1.3375494,1.2328778
 ,1.2729592,-3.0151404,-1.0683958,0.3955467,-0.0537404,0.0076772,-0.019
 9086,0.1049194,0.9143831,-0.3515692,0.2307921,0.0174387,0.0447272,-0.2
 498479,0.0582808,0.001032,0.025979,-0.2580097,-0.1209544,-0.0521089,-0
 .5527037,-0.7069098,-0.3369672,-1.7998482,-0.1595115,-0.0534935,0.2972
 21,-0.3842917,-2.9559591,-0.2476475,-2.0926302,-0.8174702,-0.343967,-0
 .027653,-0.6373519,-0.1882227,-2.114975,-4.2099464,-0.5205841,-0.93232
 23,-0.3818947,1.6428272,0.1162756,0.0080898,0.2236504,-0.4287811,-3.55
 24347,0.2095031,1.8877363,-0.6014788,0.4105819,0.0118138,0.7032017,-0.
 1771147,-2.1583746,3.2867653,0.5733911,1.123002,0.0834956,-1.8020666,0
 .0029218,-0.0644221,-0.4550087,0.2567253,3.6097126,-0.2654937,-2.08812
 09,0.7134753,-0.3837471,-0.0682157,-0.5957581,0.1906914,2.2722587,-3.5
 898555,0.4937059,1.1208408,0.0154499,1.9874057,0.004327,0.1301163,-0.4
 432422,0.1385224,3.1779126,0.1477186,2.0098381,0.624531,0.2226744,0.05
 81089,0.6197528,0.2060302,2.2017667,3.8432133,1.6014754,-1.4848686,0.0
 851102,1.5508744,-0.0049263,0.0054935,-0.9165873,1.546035,-3.6184829,-
 0.5934291,1.9377651,-0.5217967,1.0328871,-1.0205045,1.1521351,1.517187
 6,-2.2541606,3.3894976,-5.3689256,1.4439842,0.050743,0.0867967,0.02291
 3,-0.0545775,-0.2406737,-2.491112,2.7806811,-0.0078832,0.0925467,0.043
 9818,-0.0079306,-0.0077171,0.0040252,-2.5425159,1.4228042,0.2091573\Hy
 perPolar=-50.7931126,17.2847621,-6.2818774,2.5393632,1.5772493,-2.0508
 141,3.7892738,-0.2904753,-3.8711979,2.2657022\PG=C01 [X(C2H7O1)]\NImag
 =1\\0.37479835,0.18026405,0.62412091,0.01506026,-0.01392799,0.84265646
 ,-0.19920943,-0.11652193,-0.00679118,0.68954473,-0.10939241,-0.1868652
 6,-0.00321390,-0.03440407,0.78848044,-0.01177877,-0.00339754,-0.129653
 21,-0.01004761,-0.03649260,0.87958406,-0.05153465,0.01425342,0.0021538
 6,-0.31760693,0.11041899,0.07572028,0.44144885,-0.01012792,0.01384552,
 0.00298407,0.15328694,-0.15782678,-0.01079116,-0.19120951,0.40791080,0
 .00284164,0.00049196,0.00628617,0.00072172,0.03341537,-0.11790563,-0.0
 5942681,-0.30699389,0.50685280,0.11778293,-0.09928125,-0.00876516,-0.0
 3025440,0.02291897,0.00179471,-0.00404684,-0.00584877,-0.00052419,-0.1
 3903147,-0.10742347,0.01428177,0.00569581,-0.00419723,0.00179087,0.000
 01454,-0.00196668,0.00100073,0.00039144,0.13687795,-0.01684780,-0.0092
 2835,0.00560951,-0.05243199,-0.00011775,0.00003059,-0.00031416,-0.0000
 1568,0.00015574,0.00052058,0.01161528,-0.00752890,0.06963978,-0.052296
 83,-0.01718038,-0.00653086,0.00201891,-0.01881286,-0.03278201,0.003625
 04,0.00163517,0.00082539,-0.01261861,0.01981159,0.02004865,0.05559847,
 -0.02498942,-0.16982204,-0.17443994,0.00366154,-0.01006841,-0.02210281
 ,0.00094410,0.00133943,0.00088031,0.00524403,-0.01023429,-0.01192133,0
 .02104668,0.16748884,-0.01579532,-0.16486535,-0.37048881,0.00123106,0.
 00395906,0.00602057,0.00063153,0.00015709,-0.00000728,-0.00508499,0.00
 458571,0.00178048,0.01716104,0.17830299,0.37729520,-0.05271589,-0.0171
 5081,0.00139153,0.00189651,-0.02309964,0.03031832,0.00330941,0.0003417
 9,-0.00056120,-0.01273053,0.02254637,-0.01694607,0.00143544,0.00109199
 ,-0.00059152,0.05653769,-0.02517129,-0.22048659,0.19354788,0.00406125,
 -0.01255964,0.02024313,0.00090168,0.00077608,-0.00075762,0.00467167,-0
 .01117913,0.01014102,0.00045271,0.01917812,-0.02238376,0.02187210,0.22
 108356,0.00912401,0.18421094,-0.31579239,-0.00112241,-0.00630634,0.007
 67810,-0.00027858,-0.00023432,-0.00004282,0.00586750,-0.00652319,0.002
 54063,0.00045857,0.02808167,-0.01674104,-0.01133433,-0.19941290,0.3202
 7091,0.00149178,-0.02247696,0.02955586,-0.07237759,0.00494025,-0.00646
 077,-0.00106038,0.02982181,-0.03629257,0.00130486,0.00006447,0.0001568
 1,0.00129932,0.00133652,-0.00034321,-0.00523860,-0.00410336,-0.0019255
 3,0.08180685,0.00070637,-0.01326964,0.02153457,0.00866912,-0.22762659,
 0.17836548,0.00397614,-0.01375003,0.01776938,0.00072646,0.00034938,-0.
 00022892,0.00165241,0.00151854,-0.00004979,-0.00336310,-0.00147971,-0.
 00092427,-0.01483194,0.23585461,-0.00083483,-0.00622977,0.00685014,-0.
 01066842,0.17888567,-0.30519700,-0.00323928,-0.00307066,0.00885541,-0.
 00002024,0.00001463,0.00008676,0.00027361,-0.00011884,0.00090378,-0.00
 174115,-0.00098975,0.00070611,0.01431668,-0.19399152,0.30550361,0.0019
 6761,-0.01880316,-0.03292822,-0.06966168,0.00505010,0.00729443,-0.0165
 3093,0.02960932,0.03688215,0.00157847,0.00011992,-0.00013824,-0.005449
 13,-0.00446199,0.00158115,0.00113472,0.00120074,0.00051673,0.00170323,
 -0.00149423,-0.00067752,0.08249819,-0.00098283,-0.01116135,-0.02533918
 ,0.00109457,-0.17900623,-0.15568269,0.01417652,-0.01076687,-0.01874859
 ,0.00047906,0.00036078,0.00024883,-0.00393869,-0.00173351,0.00090073,0
 .00178007,0.00159841,0.00013701,-0.00082830,0.01935569,0.02729117,-0.0
 0949014,0.18019980,0.00180334,0.00403883,0.00374197,0.00593615,-0.1538
 4548,-0.34170783,0.00453604,-0.00172502,0.00381162,-0.00004776,0.00008
 790,0.00010123,0.00116654,0.00050511,0.00096418,-0.00004002,0.00011882
 ,0.00093307,0.00014059,-0.02213046,-0.01943546,-0.01341853,0.17212442,
 0.34897808,0.00189533,0.00105338,-0.00124390,-0.01184869,0.04603547,-0
 .05373123,-0.05838568,-0.00876829,0.05535889,0.00097564,-0.00046526,0.
 00007159,-0.00015983,-0.00014756,0.00008417,-0.00017442,-0.00031644,0.
 00035249,-0.00895641,0.00418405,0.00257393,0.00277219,-0.00214480,-0.0
 0007564,0.07413946,-0.00174913,0.00271115,-0.00157456,-0.01105524,-0.0
 1917108,0.02958537,0.04866527,-0.24160890,0.27368402,-0.00085132,0.000
 10342,-0.00005969,-0.00009584,-0.00015742,-0.00022315,0.00058757,0.000
 54800,0.00026624,0.00586320,-0.00109247,-0.00172112,-0.00195314,0.0010
 7348,0.00077429,-0.03959668,0.25774489,0.00034930,-0.00061229,0.000194
 61,0.02127770,-0.01663555,0.00155065,-0.02008659,0.31957691,-0.4083328
 6,0.00071507,-0.00037901,0.00005211,-0.00006310,0.00008365,-0.00008566
 ,-0.00029372,-0.00015065,0.00007288,0.00095229,-0.00035249,0.00172419,
 0.00075631,-0.00094380,0.00259485,-0.00341419,-0.30070620,0.40221706,-
 0.14217921,0.09584364,0.00809780,0.00749857,-0.00365480,-0.00032733,0.
 00078211,0.00125947,0.00017498,0.07703994,-0.06536767,-0.00544625,0.00
 654723,-0.00372589,0.00112609,0.00654567,-0.00356906,-0.00165845,0.000
 02693,-0.00022528,0.00001723,-0.00001266,-0.00014547,-0.00000071,-0.00
 025758,0.00018530,-0.00019306,0.04400900,0.09886606,-0.05335446,-0.005
 26677,-0.00459495,0.00285269,0.00025828,-0.00015993,-0.00091996,-0.000
 13239,-0.06493681,0.02037428,0.00355314,-0.00457078,0.00249075,-0.0003
 8354,-0.00460634,0.00252090,0.00070517,0.00021431,0.00014023,-0.000069
 80,0.00022256,0.00007981,0.00005159,0.00016613,-0.00015107,0.00011942,
 -0.02060023,0.02596685,0.00845874,-0.00531831,0.00863705,-0.00041924,0
 .00020317,-0.00005554,0.00000523,-0.00005875,-0.00003799,-0.00555022,0
 .00364107,-0.02197543,-0.00055784,0.00072919,0.00035858,-0.00020185,-0
 .00035619,0.00037455,-0.00010016,0.00000802,0.00000245,0.00013174,0.00
 001209,0.00001830,0.00002389,-0.00002520,0.00001216,-0.00179029,0.0011
 6490,0.01266588\\0.00003881,0.00000998,0.00000315,-0.00002082,-0.00002
 858,-0.00000177,0.00000159,-0.00002579,0.00004276,-0.00002750,0.000021
 26,0.00000331,0.00000468,0.00000068,-0.00000147,0.00000601,-0.00000209
 ,-0.00000100,-0.00000150,-0.00000196,-0.00000160,-0.00000213,0.0000022
 7,-0.00000142,-0.00000438,0.00002806,-0.00004149,0.00000524,-0.0000038
 2,-0.00000048\\\@


 When cryptography is outlawed, bayl bhgynjf jvyy unir cevinpl.
 Job cpu time:  0 days  0 hours  0 minutes  2.2 seconds.
 File lengths (MBytes):  RWF=      5 Int=      0 D2E=      0 Chk=      1 Scr=      1
 Normal termination of Gaussian 09 at Thu Jan 24 18:05:11 2019.
