 Entering Gaussian System, Link 0=/home/programs/G09_64/g09/g09
 Initial command:
 /home/programs/G09_64/g09/l1.exe /scratch/Gau-15351.inp -scrdir=/scratch/
 Entering Link 1 = /home/programs/G09_64/g09/l1.exe PID=     15353.
  
 Copyright (c) 1988,1990,1992,1993,1995,1998,2003,2009,2010,
            Gaussian, Inc.  All Rights Reserved.
  
 This is part of the Gaussian(R) 09 program.  It is based on
 the Gaussian(R) 03 system (copyright 2003, Gaussian, Inc.),
 the Gaussian(R) 98 system (copyright 1998, Gaussian, Inc.),
 the Gaussian(R) 94 system (copyright 1995, Gaussian, Inc.),
 the Gaussian 92(TM) system (copyright 1992, Gaussian, Inc.),
 the Gaussian 90(TM) system (copyright 1990, Gaussian, Inc.),
 the Gaussian 88(TM) system (copyright 1988, Gaussian, Inc.),
 the Gaussian 86(TM) system (copyright 1986, Carnegie Mellon
 University), and the Gaussian 82(TM) system (copyright 1983,
 Carnegie Mellon University). Gaussian is a federally registered
 trademark of Gaussian, Inc.
  
 This software contains proprietary and confidential information,
 including trade secrets, belonging to Gaussian, Inc.
  
 This software is provided under written license and may be
 used, copied, transmitted, or stored only in accord with that
 written license.
  
 The following legend is applicable only to US Government
 contracts under FAR:
  
                    RESTRICTED RIGHTS LEGEND
  
 Use, reproduction and disclosure by the US Government is
 subject to restrictions as set forth in subparagraphs (a)
 and (c) of the Commercial Computer Software - Restricted
 Rights clause in FAR 52.227-19.
  
 Gaussian, Inc.
 340 Quinnipiac St., Bldg. 40, Wallingford CT 06492
  
  
 ---------------------------------------------------------------
 Warning -- This program may not be used in any manner that
 competes with the business of Gaussian, Inc. or will provide
 assistance to any competitor of Gaussian, Inc.  The licensee
 of this program is prohibited from giving any competitor of
 Gaussian, Inc. access to this program.  By using this program,
 the user acknowledges that Gaussian, Inc. is engaged in the
 business of creating and licensing software in the field of
 computational chemistry and represents and warrants to the
 licensee that it is not a competitor of Gaussian, Inc. and that
 it will not use this program in any manner prohibited above.
 ---------------------------------------------------------------
  

 Cite this work as:
 Gaussian 09, Revision B.01,
 M. J. Frisch, G. W. Trucks, H. B. Schlegel, G. E. Scuseria, 
 M. A. Robb, J. R. Cheeseman, G. Scalmani, V. Barone, B. Mennucci, 
 G. A. Petersson, H. Nakatsuji, M. Caricato, X. Li, H. P. Hratchian, 
 A. F. Izmaylov, J. Bloino, G. Zheng, J. L. Sonnenberg, M. Hada, 
 M. Ehara, K. Toyota, R. Fukuda, J. Hasegawa, M. Ishida, T. Nakajima, 
 Y. Honda, O. Kitao, H. Nakai, T. Vreven, J. A. Montgomery, Jr., 
 J. E. Peralta, F. Ogliaro, M. Bearpark, J. J. Heyd, E. Brothers, 
 K. N. Kudin, V. N. Staroverov, T. Keith, R. Kobayashi, J. Normand, 
 K. Raghavachari, A. Rendell, J. C. Burant, S. S. Iyengar, J. Tomasi, 
 M. Cossi, N. Rega, J. M. Millam, M. Klene, J. E. Knox, J. B. Cross, 
 V. Bakken, C. Adamo, J. Jaramillo, R. Gomperts, R. E. Stratmann, 
 O. Yazyev, A. J. Austin, R. Cammi, C. Pomelli, J. W. Ochterski, 
 R. L. Martin, K. Morokuma, V. G. Zakrzewski, G. A. Voth, 
 P. Salvador, J. J. Dannenberg, S. Dapprich, A. D. Daniels, 
 O. Farkas, J. B. Foresman, J. V. Ortiz, J. Cioslowski, 
 and D. J. Fox, Gaussian, Inc., Wallingford CT, 2010.
 
 ******************************************
 Gaussian 09:  AM64L-G09RevB.01 12-Aug-2010
                 4-Feb-2019 
 ******************************************
 ------------------------------------------------------------------
 #p hf/sto-3g scf=verytight opt=(ts,noeigentest,calcfc) NoSymm freq
 ------------------------------------------------------------------
 1/5=1,10=4,11=1,18=20,38=1/1,3;
 2/9=110,12=2,15=1,17=6,18=5,40=1/2;
 3/6=3,11=9,16=1,25=1,30=1,71=2/1,2,3;
 4//1;
 5/5=2,17=3,38=5/2;
 8/6=4,10=90,11=11/1;
 11/6=1,8=1,9=11,15=111,16=1,31=1/1,2,10;
 10/6=1,7=6,13=1,31=1/2;
 6/7=2,8=2,9=2,10=2,28=1/1;
 7/10=1,18=20,25=1,30=1/1,2,3,16;
 1/5=1,10=4,11=1,18=20/3(2);
 2/9=110,15=1/2;
 99//99;
 2/9=110,15=1/2;
 3/6=3,11=9,16=1,25=1,30=1,71=1/1,2,3;
 4/5=5,16=3/1;
 5/5=2,17=3,38=5/2;
 7/30=1/1,2,3,16;
 1/5=1,11=1,18=20/3(-5);
 2/9=110,15=1/2;
 6/7=2,8=2,9=2,10=2,19=2,28=1/1;
 99/9=1/99;
 Leave Link    1 at Mon Feb  4 19:05:59 2019, MaxMem=          0 cpu:       0.0
 (Enter /home/programs/G09_64/g09/l101.exe)
 --
 --
 --
 Symbolic Z-matrix:
 Charge =  0 Multiplicity = 2
 6                     1.25007  -0.01552  -0.16398 
 6                    -0.13399  -0.5137    0.2738 
 8                    -1.1156    0.45864  -0.11652 
 1                     1.49892   1.09034   0.4585 
 1                     1.29219   0.2302   -1.22062 
 1                     2.04724  -0.69743   0.11621 
 1                    -0.33489  -1.48705  -0.19546 
 1                    -0.13936  -0.67201   1.35986 
 1                    -1.97177   0.07339   0.20034 
 1                     1.68105   1.88061   0.90929 
 
 NAtoms=     10 NQM=     10 NQMF=      0 NMic=      0 NMicF=      0 NTot=     10.
                    Isotopes and Nuclear Properties:
 (Nuclear quadrupole moments (NQMom) in fm**2, nuclear magnetic moments (NMagM)
  in nuclear magnetons)

  Atom         1           2           3           4           5           6           7           8           9          10
 IAtWgt=          12          12          16           1           1           1           1           1           1           1
 AtmWgt=  12.0000000  12.0000000  15.9949146   1.0078250   1.0078250   1.0078250   1.0078250   1.0078250   1.0078250   1.0078250
 NucSpn=           0           0           0           1           1           1           1           1           1           1
 AtZEff=   0.0000000   0.0000000   0.0000000   0.0000000   0.0000000   0.0000000   0.0000000   0.0000000   0.0000000   0.0000000
 NQMom=    0.0000000   0.0000000   0.0000000   0.0000000   0.0000000   0.0000000   0.0000000   0.0000000   0.0000000   0.0000000
 NMagM=    0.0000000   0.0000000   0.0000000   2.7928460   2.7928460   2.7928460   2.7928460   2.7928460   2.7928460   2.7928460
 Leave Link  101 at Mon Feb  4 19:05:59 2019, MaxMem=   33554432 cpu:       0.1
 (Enter /home/programs/G09_64/g09/l103.exe)

 GradGradGradGradGradGradGradGradGradGradGradGradGradGradGradGradGradGrad
 Berny optimization.
 Initialization pass.
                           ----------------------------
                           !    Initial Parameters    !
                           ! (Angstroms and Degrees)  !
 --------------------------                            --------------------------
 ! Name  Definition              Value          Derivative Info.                !
 --------------------------------------------------------------------------------
 ! R1    R(1,2)                  1.5347         calculate D2E/DX2 analytically  !
 ! R2    R(1,4)                  1.2932         calculate D2E/DX2 analytically  !
 ! R3    R(1,5)                  1.0856         calculate D2E/DX2 analytically  !
 ! R4    R(1,6)                  1.0858         calculate D2E/DX2 analytically  !
 ! R5    R(2,3)                  1.4357         calculate D2E/DX2 analytically  !
 ! R6    R(2,7)                  1.0991         calculate D2E/DX2 analytically  !
 ! R7    R(2,8)                  1.0976         calculate D2E/DX2 analytically  !
 ! R8    R(3,9)                  0.9909         calculate D2E/DX2 analytically  !
 ! R9    R(4,10)                 0.9279         calculate D2E/DX2 analytically  !
 ! A1    A(2,1,4)              108.289          calculate D2E/DX2 analytically  !
 ! A2    A(2,1,5)              112.7105         calculate D2E/DX2 analytically  !
 ! A3    A(2,1,6)              112.6206         calculate D2E/DX2 analytically  !
 ! A4    A(4,1,5)              105.5142         calculate D2E/DX2 analytically  !
 ! A5    A(4,1,6)              105.757          calculate D2E/DX2 analytically  !
 ! A6    A(5,1,6)              111.3959         calculate D2E/DX2 analytically  !
 ! A7    A(1,2,3)              108.6142         calculate D2E/DX2 analytically  !
 ! A8    A(1,2,7)              109.3002         calculate D2E/DX2 analytically  !
 ! A9    A(1,2,8)              109.4806         calculate D2E/DX2 analytically  !
 ! A10   A(3,2,7)              111.0219         calculate D2E/DX2 analytically  !
 ! A11   A(3,2,8)              111.3063         calculate D2E/DX2 analytically  !
 ! A12   A(7,2,8)              107.0886         calculate D2E/DX2 analytically  !
 ! A13   A(2,3,9)              103.9169         calculate D2E/DX2 analytically  !
 ! A14   L(1,4,10,2,-1)        180.0648         calculate D2E/DX2 analytically  !
 ! A15   L(1,4,10,2,-2)        179.3899         calculate D2E/DX2 analytically  !
 ! D1    D(4,1,2,3)             62.4001         calculate D2E/DX2 analytically  !
 ! D2    D(4,1,2,7)           -176.3335         calculate D2E/DX2 analytically  !
 ! D3    D(4,1,2,8)            -59.3243         calculate D2E/DX2 analytically  !
 ! D4    D(5,1,2,3)            -53.9407         calculate D2E/DX2 analytically  !
 ! D5    D(5,1,2,7)             67.3257         calculate D2E/DX2 analytically  !
 ! D6    D(5,1,2,8)           -175.6652         calculate D2E/DX2 analytically  !
 ! D7    D(6,1,2,3)            178.9871         calculate D2E/DX2 analytically  !
 ! D8    D(6,1,2,7)            -59.7465         calculate D2E/DX2 analytically  !
 ! D9    D(6,1,2,8)             57.2626         calculate D2E/DX2 analytically  !
 ! D10   D(1,2,3,9)           -179.7225         calculate D2E/DX2 analytically  !
 ! D11   D(7,2,3,9)             60.0743         calculate D2E/DX2 analytically  !
 ! D12   D(8,2,3,9)            -59.1205         calculate D2E/DX2 analytically  !
 --------------------------------------------------------------------------------
 Trust Radius=3.00D-01 FncErr=1.00D-07 GrdErr=1.00D-07
 Number of steps in this run=     46 maximum allowed number of steps=    100.
 Search for a saddle point of order  1.
 GradGradGradGradGradGradGradGradGradGradGradGradGradGradGradGradGradGrad

 Leave Link  103 at Mon Feb  4 19:05:59 2019, MaxMem=   33554432 cpu:       0.0
 (Enter /home/programs/G09_64/g09/l202.exe)
                          Input orientation:                          
 ---------------------------------------------------------------------
 Center     Atomic      Atomic             Coordinates (Angstroms)
 Number     Number       Type             X           Y           Z
 ---------------------------------------------------------------------
      1          6           0        1.250067   -0.015522   -0.163984
      2          6           0       -0.133993   -0.513698    0.273795
      3          8           0       -1.115601    0.458636   -0.116518
      4          1           0        1.498915    1.090339    0.458495
      5          1           0        1.292185    0.230196   -1.220621
      6          1           0        2.047235   -0.697429    0.116205
      7          1           0       -0.334889   -1.487047   -0.195463
      8          1           0       -0.139358   -0.672012    1.359858
      9          1           0       -1.971766    0.073393    0.200335
     10          1           0        1.681050    1.880613    0.909291
 ---------------------------------------------------------------------
                    Distance matrix (angstroms):
                    1          2          3          4          5
     1  C    0.000000
     2  C    1.534748   0.000000
     3  O    2.413185   1.435734   0.000000
     4  H    1.293188   2.296397   2.750524   0.000000
     5  H    1.085649   2.195596   2.658695   1.897897   0.000000
     6  H    1.085808   2.194618   3.375526   1.901034   1.793793
     7  H    2.162975   1.099077   2.097958   3.230080   2.578225
     8  H    2.164157   1.097554   2.100262   2.569489   3.085801
     9  H    3.243585   1.930669   0.990872   3.625804   3.563296
    10  H    2.221034   3.070987   3.300842   0.927859   2.722429
                    6          7          8          9         10
     6  H    0.000000
     7  H    2.528863   0.000000
     8  H    2.515653   1.766787   0.000000
     9  H    4.093118   2.295865   2.292998   0.000000
    10  H    2.722017   4.077453   3.167458   4.136632   0.000000
 Symmetry turned off by external request.
 Stoichiometry    C2H7O(2)
 Framework group  C1[X(C2H7O)]
 Deg. of freedom    24
 Full point group                 C1      NOp   1
 Rotational constants (GHZ):     25.1372415      8.4304114      7.3627768
 Leave Link  202 at Mon Feb  4 19:05:59 2019, MaxMem=   33554432 cpu:       0.0
 (Enter /home/programs/G09_64/g09/l301.exe)
 Standard basis: STO-3G (5D, 7F)
 Ernie: Thresh=  0.10000D-02 Tol=  0.10000D-05 Strict=F.
 Integral buffers will be    131072 words long.
 Raffenetti 2 integral format.
 Two-electron integral symmetry is turned off.
    22 basis functions,    66 primitive gaussians,    22 cartesian basis functions
    14 alpha electrons       13 beta electrons
       nuclear repulsion energy        85.5738477201 Hartrees.
 IExCor=    0 DFT=F Ex=HF Corr=None ExCW=0 ScaHFX=  1.000000
 ScaDFX=  1.000000  1.000000  1.000000  1.000000 ScalE2=  1.000000  1.000000
 IRadAn=      0 IRanWt=     -1 IRanGd=            0 ICorTp=0
 NAtoms=   10 NActive=   10 NUniq=   10 SFac= 1.00D+00 NAtFMM=   50 NAOKFM=F Big=F
 Leave Link  301 at Mon Feb  4 19:05:59 2019, MaxMem=   33554432 cpu:       0.1
 (Enter /home/programs/G09_64/g09/l302.exe)
 NPDir=0 NMtPBC=     1 NCelOv=     1 NCel=       1 NClECP=     1 NCelD=      1
         NCelK=      1 NCelE2=     1 NClLst=     1 CellRange=     0.0.
 One-electron integrals computed using PRISM.
 NBasis=    22 RedAO= T  NBF=    22
 NBsUse=    22 1.00D-06 NBFU=    22
 Leave Link  302 at Mon Feb  4 19:06:00 2019, MaxMem=   33554432 cpu:       0.1
 (Enter /home/programs/G09_64/g09/l303.exe)
 DipDrv:  MaxL=1.
 Leave Link  303 at Mon Feb  4 19:06:00 2019, MaxMem=   33554432 cpu:       0.1
 (Enter /home/programs/G09_64/g09/l401.exe)
 Harris functional with IExCor=  205 diagonalized for initial guess.
 ExpMin= 1.69D-01 ExpMax= 1.31D+02 ExpMxC= 1.31D+02 IAcc=1 IRadAn=         1 AccDes= 0.00D+00
 HarFok:  IExCor=  205 AccDes= 0.00D+00 IRadAn=         1 IDoV= 1
 ScaDFX=  1.000000  1.000000  1.000000  1.000000
 FoFCou: FMM=F IPFlag=           0 FMFlag=      100000 FMFlg1=           0
         NFxFlg=           0 DoJE=T BraDBF=F KetDBF=T FulRan=T
         Omega=  0.000000  0.000000  1.000000  0.000000  0.000000 ICntrl=     500 IOpCl=  0
         NMat0=    1 NMatS0=    1 NMatT0=    0 NMatD0=    1 NMtDS0=    0 NMtDT0=    0
         I1Cent=           4 NGrid=           0.
 Symmetry not used in FoFCou.
 Harris En= -152.784258299659    
 Initial guess <Sx>= 0.0000 <Sy>= 0.0000 <Sz>= 0.5000 <S**2>= 0.7500 S= 0.5000
 Leave Link  401 at Mon Feb  4 19:06:00 2019, MaxMem=   33554432 cpu:       0.3
 (Enter /home/programs/G09_64/g09/l502.exe)
 UHF open shell SCF:
 Requested convergence on RMS density matrix=1.00D-08 within 128 cycles.
 Requested convergence on MAX density matrix=1.00D-06.
 Requested convergence on             energy=1.00D-06.
 No special actions if energy rises.
 Using DIIS extrapolation, IDIIS=  1040.
 Two-electron integral symmetry not used.
 Keep R1 and R2 ints in memory in canonical form, NReq=884165.
 IEnd=       19882 IEndB=       19882 NGot=    33554432 MDV=    33487407
 LenX=    33487407 LenY=    33486482
 Symmetry not used in FoFDir.
 MinBra= 0 MaxBra= 1 Meth= 1.
 IRaf=       0 NMat=   1 IRICut=       1 DoRegI=T DoRafI=F ISym2E= 0 JSym2E=0.

 Cycle   1  Pass 1  IDiag  1:
 E= -152.465774420566    
 DIIS: error= 3.81D-02 at cycle   1 NSaved=   1.
 NSaved= 1 IEnMin= 1 EnMin= -152.465774420566     IErMin= 1 ErrMin= 3.81D-02
 ErrMax= 3.81D-02 EMaxC= 1.00D-01 BMatC= 3.07D-01 BMatP= 3.07D-01
 IDIUse=3 WtCom= 6.19D-01 WtEn= 3.81D-01
 Coeff-Com:  0.100D+01
 Coeff-En:   0.100D+01
 Coeff:      0.100D+01
 Gap=     0.891 Goal=   None    Shift=    0.000
 Gap=     0.524 Goal=   None    Shift=    0.000
 GapD=    0.524 DampG=2.000 DampE=0.500 DampFc=1.0000 IDamp=-1.
 RMSDP=1.85D-02 MaxDP=1.38D-01              OVMax= 0.00D+00

 Cycle   2  Pass 1  IDiag  1:
 E= -152.556212337648     Delta-E=       -0.090437917082 Rises=F Damp=F
 DIIS: error= 9.09D-03 at cycle   2 NSaved=   2.
 NSaved= 2 IEnMin= 2 EnMin= -152.556212337648     IErMin= 2 ErrMin= 9.09D-03
 ErrMax= 9.09D-03 EMaxC= 1.00D-01 BMatC= 1.48D-02 BMatP= 3.07D-01
 IDIUse=3 WtCom= 9.09D-01 WtEn= 9.09D-02
 Coeff-Com:  0.743D-01 0.926D+00
 Coeff-En:   0.000D+00 0.100D+01
 Coeff:      0.675D-01 0.932D+00
 Gap=     0.862 Goal=   None    Shift=    0.000
 Gap=     0.584 Goal=   None    Shift=    0.000
 RMSDP=4.21D-03 MaxDP=3.87D-02 DE=-9.04D-02 OVMax= 0.00D+00

 Cycle   3  Pass 1  IDiag  1:
 E= -152.562139047051     Delta-E=       -0.005926709403 Rises=F Damp=F
 DIIS: error= 4.55D-03 at cycle   3 NSaved=   3.
 NSaved= 3 IEnMin= 3 EnMin= -152.562139047051     IErMin= 3 ErrMin= 4.55D-03
 ErrMax= 4.55D-03 EMaxC= 1.00D-01 BMatC= 1.98D-03 BMatP= 1.48D-02
 IDIUse=3 WtCom= 9.55D-01 WtEn= 4.55D-02
 Coeff-Com: -0.403D-01-0.112D+00 0.115D+01
 Coeff-En:   0.000D+00 0.000D+00 0.100D+01
 Coeff:     -0.385D-01-0.107D+00 0.115D+01
 Gap=     0.850 Goal=   None    Shift=    0.000
 Gap=     0.599 Goal=   None    Shift=    0.000
 RMSDP=1.82D-03 MaxDP=2.76D-02 DE=-5.93D-03 OVMax= 0.00D+00

 Cycle   4  Pass 1  IDiag  1:
 E= -152.563332372441     Delta-E=       -0.001193325391 Rises=F Damp=F
 DIIS: error= 1.71D-03 at cycle   4 NSaved=   4.
 NSaved= 4 IEnMin= 4 EnMin= -152.563332372441     IErMin= 4 ErrMin= 1.71D-03
 ErrMax= 1.71D-03 EMaxC= 1.00D-01 BMatC= 3.46D-04 BMatP= 1.98D-03
 IDIUse=3 WtCom= 9.83D-01 WtEn= 1.71D-02
 Coeff-Com:  0.492D-02-0.637D-01-0.475D+00 0.153D+01
 Coeff-En:   0.000D+00 0.000D+00 0.000D+00 0.100D+01
 Coeff:      0.483D-02-0.626D-01-0.467D+00 0.152D+01
 Gap=     0.858 Goal=   None    Shift=    0.000
 Gap=     0.601 Goal=   None    Shift=    0.000
 RMSDP=1.15D-03 MaxDP=1.76D-02 DE=-1.19D-03 OVMax= 0.00D+00

 Cycle   5  Pass 1  IDiag  1:
 E= -152.563598534800     Delta-E=       -0.000266162359 Rises=F Damp=F
 DIIS: error= 4.47D-04 at cycle   5 NSaved=   5.
 NSaved= 5 IEnMin= 5 EnMin= -152.563598534800     IErMin= 5 ErrMin= 4.47D-04
 ErrMax= 4.47D-04 EMaxC= 1.00D-01 BMatC= 2.17D-05 BMatP= 3.46D-04
 IDIUse=3 WtCom= 9.96D-01 WtEn= 4.47D-03
 Coeff-Com:  0.121D-02 0.213D-01 0.264D-01-0.307D+00 0.126D+01
 Coeff-En:   0.000D+00 0.000D+00 0.000D+00 0.000D+00 0.100D+01
 Coeff:      0.121D-02 0.212D-01 0.263D-01-0.305D+00 0.126D+01
 Gap=     0.858 Goal=   None    Shift=    0.000
 Gap=     0.603 Goal=   None    Shift=    0.000
 RMSDP=2.57D-04 MaxDP=2.26D-03 DE=-2.66D-04 OVMax= 0.00D+00

 Cycle   6  Pass 1  IDiag  1:
 E= -152.563616215861     Delta-E=       -0.000017681061 Rises=F Damp=F
 DIIS: error= 1.67D-04 at cycle   6 NSaved=   6.
 NSaved= 6 IEnMin= 6 EnMin= -152.563616215861     IErMin= 6 ErrMin= 1.67D-04
 ErrMax= 1.67D-04 EMaxC= 1.00D-01 BMatC= 5.08D-06 BMatP= 2.17D-05
 IDIUse=3 WtCom= 9.98D-01 WtEn= 1.67D-03
 Coeff-Com: -0.132D-02-0.865D-03 0.559D-01-0.758D-01-0.648D+00 0.167D+01
 Coeff-En:   0.000D+00 0.000D+00 0.000D+00 0.000D+00 0.000D+00 0.100D+01
 Coeff:     -0.131D-02-0.864D-03 0.558D-01-0.757D-01-0.647D+00 0.167D+01
 Gap=     0.858 Goal=   None    Shift=    0.000
 Gap=     0.603 Goal=   None    Shift=    0.000
 RMSDP=1.76D-04 MaxDP=1.38D-03 DE=-1.77D-05 OVMax= 0.00D+00

 Cycle   7  Pass 1  IDiag  1:
 E= -152.563621544150     Delta-E=       -0.000005328290 Rises=F Damp=F
 DIIS: error= 8.00D-05 at cycle   7 NSaved=   7.
 NSaved= 7 IEnMin= 7 EnMin= -152.563621544150     IErMin= 7 ErrMin= 8.00D-05
 ErrMax= 8.00D-05 EMaxC= 1.00D-01 BMatC= 6.73D-07 BMatP= 5.08D-06
 IDIUse=1 WtCom= 1.00D+00 WtEn= 0.00D+00
 Coeff-Com:  0.419D-03-0.335D-02-0.314D-01 0.867D-01 0.110D+00-0.807D+00
 Coeff-Com:  0.165D+01
 Coeff:      0.419D-03-0.335D-02-0.314D-01 0.867D-01 0.110D+00-0.807D+00
 Coeff:      0.165D+01
 Gap=     0.858 Goal=   None    Shift=    0.000
 Gap=     0.603 Goal=   None    Shift=    0.000
 RMSDP=7.43D-05 MaxDP=5.25D-04 DE=-5.33D-06 OVMax= 0.00D+00

 Cycle   8  Pass 1  IDiag  1:
 E= -152.563622282924     Delta-E=       -0.000000738774 Rises=F Damp=F
 DIIS: error= 3.00D-05 at cycle   8 NSaved=   8.
 NSaved= 8 IEnMin= 8 EnMin= -152.563622282924     IErMin= 8 ErrMin= 3.00D-05
 ErrMax= 3.00D-05 EMaxC= 1.00D-01 BMatC= 6.00D-08 BMatP= 6.73D-07
 IDIUse=1 WtCom= 1.00D+00 WtEn= 0.00D+00
 Coeff-Com:  0.128D-03 0.164D-03-0.392D-02 0.332D-02 0.605D-01-0.130D+00
 Coeff-Com: -0.607D-01 0.113D+01
 Coeff:      0.128D-03 0.164D-03-0.392D-02 0.332D-02 0.605D-01-0.130D+00
 Coeff:     -0.607D-01 0.113D+01
 Gap=     0.858 Goal=   None    Shift=    0.000
 Gap=     0.603 Goal=   None    Shift=    0.000
 RMSDP=1.54D-05 MaxDP=1.16D-04 DE=-7.39D-07 OVMax= 0.00D+00

 Cycle   9  Pass 1  IDiag  1:
 E= -152.563622339887     Delta-E=       -0.000000056963 Rises=F Damp=F
 DIIS: error= 1.42D-05 at cycle   9 NSaved=   9.
 NSaved= 9 IEnMin= 9 EnMin= -152.563622339887     IErMin= 9 ErrMin= 1.42D-05
 ErrMax= 1.42D-05 EMaxC= 1.00D-01 BMatC= 1.82D-08 BMatP= 6.00D-08
 IDIUse=1 WtCom= 1.00D+00 WtEn= 0.00D+00
 Coeff-Com: -0.218D-03 0.364D-03 0.109D-01-0.214D-01-0.856D-01 0.305D+00
 Coeff-Com: -0.295D+00-0.113D+01 0.222D+01
 Coeff:     -0.218D-03 0.364D-03 0.109D-01-0.214D-01-0.856D-01 0.305D+00
 Coeff:     -0.295D+00-0.113D+01 0.222D+01
 Gap=     0.858 Goal=   None    Shift=    0.000
 Gap=     0.603 Goal=   None    Shift=    0.000
 RMSDP=1.47D-05 MaxDP=8.83D-05 DE=-5.70D-08 OVMax= 0.00D+00

 Cycle  10  Pass 1  IDiag  1:
 E= -152.563622365323     Delta-E=       -0.000000025436 Rises=F Damp=F
 DIIS: error= 3.78D-06 at cycle  10 NSaved=  10.
 NSaved=10 IEnMin=10 EnMin= -152.563622365323     IErMin=10 ErrMin= 3.78D-06
 ErrMax= 3.78D-06 EMaxC= 1.00D-01 BMatC= 1.06D-09 BMatP= 1.82D-08
 IDIUse=1 WtCom= 1.00D+00 WtEn= 0.00D+00
 Coeff-Com:  0.770D-04-0.177D-03-0.422D-02 0.866D-02 0.293D-01-0.114D+00
 Coeff-Com:  0.131D+00 0.351D+00-0.945D+00 0.154D+01
 Coeff:      0.770D-04-0.177D-03-0.422D-02 0.866D-02 0.293D-01-0.114D+00
 Coeff:      0.131D+00 0.351D+00-0.945D+00 0.154D+01
 Gap=     0.858 Goal=   None    Shift=    0.000
 Gap=     0.603 Goal=   None    Shift=    0.000
 RMSDP=3.49D-06 MaxDP=2.27D-05 DE=-2.54D-08 OVMax= 0.00D+00

 Cycle  11  Pass 1  IDiag  1:
 E= -152.563622366617     Delta-E=       -0.000000001294 Rises=F Damp=F
 DIIS: error= 9.09D-07 at cycle  11 NSaved=  11.
 NSaved=11 IEnMin=11 EnMin= -152.563622366617     IErMin=11 ErrMin= 9.09D-07
 ErrMax= 9.09D-07 EMaxC= 1.00D-01 BMatC= 8.92D-11 BMatP= 1.06D-09
 IDIUse=1 WtCom= 1.00D+00 WtEn= 0.00D+00
 Coeff-Com: -0.535D-04 0.132D-03 0.295D-02-0.604D-02-0.201D-01 0.793D-01
 Coeff-Com: -0.930D-01-0.241D+00 0.674D+00-0.126D+01 0.186D+01
 Coeff:     -0.535D-04 0.132D-03 0.295D-02-0.604D-02-0.201D-01 0.793D-01
 Coeff:     -0.930D-01-0.241D+00 0.674D+00-0.126D+01 0.186D+01
 Gap=     0.858 Goal=   None    Shift=    0.000
 Gap=     0.603 Goal=   None    Shift=    0.000
 RMSDP=7.94D-07 MaxDP=5.78D-06 DE=-1.29D-09 OVMax= 0.00D+00

 Cycle  12  Pass 1  IDiag  1:
 E= -152.563622366725     Delta-E=       -0.000000000108 Rises=F Damp=F
 DIIS: error= 4.52D-07 at cycle  12 NSaved=  12.
 NSaved=12 IEnMin=12 EnMin= -152.563622366725     IErMin=12 ErrMin= 4.52D-07
 ErrMax= 4.52D-07 EMaxC= 1.00D-01 BMatC= 1.32D-11 BMatP= 8.92D-11
 IDIUse=1 WtCom= 1.00D+00 WtEn= 0.00D+00
 Coeff-Com:  0.193D-04-0.445D-04-0.111D-02 0.221D-02 0.723D-02-0.289D-01
 Coeff-Com:  0.352D-01 0.879D-01-0.257D+00 0.542D+00-0.122D+01 0.184D+01
 Coeff:      0.193D-04-0.445D-04-0.111D-02 0.221D-02 0.723D-02-0.289D-01
 Coeff:      0.352D-01 0.879D-01-0.257D+00 0.542D+00-0.122D+01 0.184D+01
 Gap=     0.858 Goal=   None    Shift=    0.000
 Gap=     0.603 Goal=   None    Shift=    0.000
 RMSDP=4.06D-07 MaxDP=3.46D-06 DE=-1.08D-10 OVMax= 0.00D+00

 Cycle  13  Pass 1  IDiag  1:
 E= -152.563622366744     Delta-E=       -0.000000000019 Rises=F Damp=F
 DIIS: error= 7.18D-08 at cycle  13 NSaved=  13.
 NSaved=13 IEnMin=13 EnMin= -152.563622366744     IErMin=13 ErrMin= 7.18D-08
 ErrMax= 7.18D-08 EMaxC= 1.00D-01 BMatC= 6.21D-13 BMatP= 1.32D-11
 IDIUse=1 WtCom= 1.00D+00 WtEn= 0.00D+00
 Coeff-Com: -0.365D-05 0.777D-05 0.223D-03-0.424D-03-0.138D-02 0.556D-02
 Coeff-Com: -0.702D-02-0.173D-01 0.518D-01-0.120D+00 0.331D+00-0.701D+00
 Coeff-Com:  0.146D+01
 Coeff:     -0.365D-05 0.777D-05 0.223D-03-0.424D-03-0.138D-02 0.556D-02
 Coeff:     -0.702D-02-0.173D-01 0.518D-01-0.120D+00 0.331D+00-0.701D+00
 Coeff:      0.146D+01
 Gap=     0.858 Goal=   None    Shift=    0.000
 Gap=     0.603 Goal=   None    Shift=    0.000
 RMSDP=7.50D-08 MaxDP=6.65D-07 DE=-1.88D-11 OVMax= 0.00D+00

 Cycle  14  Pass 1  IDiag  1:
 E= -152.563622366744     Delta-E=        0.000000000000 Rises=F Damp=F
 DIIS: error= 1.83D-08 at cycle  14 NSaved=  14.
 NSaved=14 IEnMin=14 EnMin= -152.563622366744     IErMin=14 ErrMin= 1.83D-08
 ErrMax= 1.83D-08 EMaxC= 1.00D-01 BMatC= 5.41D-14 BMatP= 6.21D-13
 IDIUse=1 WtCom= 1.00D+00 WtEn= 0.00D+00
 Coeff-Com:  0.166D-05-0.330D-05-0.107D-03 0.195D-03 0.630D-03-0.257D-02
 Coeff-Com:  0.335D-02 0.814D-02-0.248D-01 0.605D-01-0.184D+00 0.426D+00
 Coeff-Com: -0.108D+01 0.179D+01
 Coeff:      0.166D-05-0.330D-05-0.107D-03 0.195D-03 0.630D-03-0.257D-02
 Coeff:      0.335D-02 0.814D-02-0.248D-01 0.605D-01-0.184D+00 0.426D+00
 Coeff:     -0.108D+01 0.179D+01
 Gap=     0.858 Goal=   None    Shift=    0.000
 Gap=     0.603 Goal=   None    Shift=    0.000
 RMSDP=1.89D-08 MaxDP=2.07D-07 DE=-4.55D-13 OVMax= 0.00D+00

 Cycle  15  Pass 1  IDiag  1:
 E= -152.563622366744     Delta-E=        0.000000000000 Rises=F Damp=F
 DIIS: error= 6.71D-09 at cycle  15 NSaved=  15.
 NSaved=15 IEnMin=15 EnMin= -152.563622366744     IErMin=15 ErrMin= 6.71D-09
 ErrMax= 6.71D-09 EMaxC= 1.00D-01 BMatC= 7.48D-15 BMatP= 5.41D-14
 IDIUse=1 WtCom= 1.00D+00 WtEn= 0.00D+00
 Coeff-Com: -0.406D-06 0.587D-06 0.300D-04-0.486D-04-0.156D-03 0.657D-03
 Coeff-Com: -0.944D-03-0.216D-02 0.702D-02-0.197D-01 0.703D-01-0.180D+00
 Coeff-Com:  0.532D+00-0.123D+01 0.182D+01
 Coeff:     -0.406D-06 0.587D-06 0.300D-04-0.486D-04-0.156D-03 0.657D-03
 Coeff:     -0.944D-03-0.216D-02 0.702D-02-0.197D-01 0.703D-01-0.180D+00
 Coeff:      0.532D+00-0.123D+01 0.182D+01
 Gap=     0.858 Goal=   None    Shift=    0.000
 Gap=     0.603 Goal=   None    Shift=    0.000
 RMSDP=8.38D-09 MaxDP=8.48D-08 DE=-1.71D-13 OVMax= 0.00D+00

 SCF Done:  E(UHF) =  -152.563622367     A.U. after   15 cycles
             Convg  =    0.8377D-08             -V/T =  2.0064
 <Sx>= 0.0000 <Sy>= 0.0000 <Sz>= 0.5000 <S**2>= 0.7872 S= 0.5184
 <L.S>= 0.000000000000E+00
 KE= 1.515999593484D+02 PE=-5.297217108580D+02 EE= 1.399842814227D+02
 Annihilation of the first spin contaminant:
 S**2 before annihilation     0.7872,   after     0.7503
 Leave Link  502 at Mon Feb  4 19:06:00 2019, MaxMem=   33554432 cpu:       0.1
 (Enter /home/programs/G09_64/g09/l801.exe)
 Range of M.O.s used for correlation:     1    22
 NBasis=    22 NAE=    14 NBE=    13 NFC=     0 NFV=     0
 NROrb=     22 NOA=    14 NOB=    13 NVA=     8 NVB=     9
 Leave Link  801 at Mon Feb  4 19:06:00 2019, MaxMem=   33554432 cpu:       0.0
 (Enter /home/programs/G09_64/g09/l1101.exe)
 Using compressed storage, NAtomX=    10.
 Will process  11 centers per pass.
 Leave Link 1101 at Mon Feb  4 19:06:00 2019, MaxMem=   33554432 cpu:       0.1
 (Enter /home/programs/G09_64/g09/l1102.exe)
 Symmetrizing basis deriv contribution to polar:
 IMax=3 JMax=2 DiffMx= 0.00D+00
 Leave Link 1102 at Mon Feb  4 19:06:00 2019, MaxMem=   33554432 cpu:       0.0
 (Enter /home/programs/G09_64/g09/l1110.exe)
 Forming Gx(P) for the SCF density, NAtomX=    10.
 Integral derivatives from FoFDir/FoFCou, PRISM(SPDF).
 Do as many integral derivatives as possible in FoFDir.
 G2DrvN: MDV=      33554248.
 G2DrvN: will do    11 centers at a time, making    1 passes doing MaxLOS=1.
 Calling FoFCou, ICntrl=  3107 FMM=F I1Cent=   0 AccDes= 0.00D+00.
 FoFCou: FMM=F IPFlag=           0 FMFlag=      100000 FMFlg1=           0
         NFxFlg=           0 DoJE=F BraDBF=F KetDBF=F FulRan=T
         Omega=  0.000000  0.000000  1.000000  0.000000  0.000000 ICntrl=    3107 IOpCl=  1
         NMat0=    1 NMatS0=    1 NMatT0=    0 NMatD0=    1 NMtDS0=    0 NMtDT0=    0
         I1Cent=           0 NGrid=           0.
 Symmetry not used in FoFCou.
 FoFDir/FoFCou used for L=0 through L=1.
 End of G2Drv Frequency-dependent properties file   721 does not exist.
 End of G2Drv Frequency-dependent properties file   722 does not exist.
 Leave Link 1110 at Mon Feb  4 19:06:00 2019, MaxMem=   33554432 cpu:       0.2
 (Enter /home/programs/G09_64/g09/l1002.exe)
 Minotr:  UHF open shell wavefunction.
          IDoAtm=1111111111
          Direct CPHF calculation.
          Differentiating once with respect to nuclear coordinates.
          Requested convergence is 1.0D-06 RMS, and 1.0D-05 maximum.
          Secondary convergence is 1.0D-12 RMS, and 1.0D-12 maximum.
          NewPWx=T KeepS1=F KeepF1=F KeepIn=T MapXYZ=F SortEE=F KeepMc=T.
          MDV=      33554328 using IRadAn=       2.
          Keep R1 and R2 ints in memory in canonical form, NReq=864982.
 Symmetry not used in FoFDir.
 MinBra= 0 MaxBra= 1 Meth= 1.
 IRaf=       0 NMat=   1 IRICut=       1 DoRegI=T DoRafI=F ISym2E= 0 JSym2E=0.
          Solving linear equations simultaneously, MaxMat=       0.
          There are    33 degrees of freedom in the 1st order CPHF.  IDoFFX=5.
     27 vectors produced by pass  0 Test12= 6.94D-12 3.03D-07 XBig12= 6.74D-02 1.79D-01.
 AX will form    27 AO Fock derivatives at one time.
     27 vectors produced by pass  1 Test12= 6.94D-12 3.03D-07 XBig12= 6.28D-04 7.25D-03.
     27 vectors produced by pass  2 Test12= 6.94D-12 3.03D-07 XBig12= 4.77D-06 5.62D-04.
     27 vectors produced by pass  3 Test12= 6.94D-12 3.03D-07 XBig12= 4.72D-08 6.06D-05.
     11 vectors produced by pass  4 Test12= 6.94D-12 3.03D-07 XBig12= 1.29D-10 2.92D-06.
 Inverted reduced A of dimension   119 with in-core refinement.
 End of Minotr Frequency-dependent properties file   721 does not exist.
 End of Minotr Frequency-dependent properties file   722 does not exist.
 Leave Link 1002 at Mon Feb  4 19:06:01 2019, MaxMem=   33554432 cpu:       0.1
 (Enter /home/programs/G09_64/g09/l601.exe)
 Copying SCF densities to generalized density rwf, IOpCl= 1 IROHF=0.

 **********************************************************************

            Population analysis using the SCF density.

 **********************************************************************

 Alpha  occ. eigenvalues --  -20.25884 -11.09214 -11.03967  -1.27947  -0.97576
 Alpha  occ. eigenvalues --   -0.80247  -0.63182  -0.61850  -0.56492  -0.51394
 Alpha  occ. eigenvalues --   -0.48225  -0.41783  -0.36182  -0.30152
 Alpha virt. eigenvalues --    0.55655   0.63745   0.65719   0.69219   0.70608
 Alpha virt. eigenvalues --    0.74753   0.77904   0.82074
  Beta  occ. eigenvalues --  -20.25867 -11.09406 -11.01854  -1.27866  -0.94115
  Beta  occ. eigenvalues --   -0.77623  -0.61504  -0.59349  -0.51181  -0.48397
  Beta  occ. eigenvalues --   -0.47348  -0.41058  -0.35658
  Beta virt. eigenvalues --    0.24608   0.55804   0.64862   0.66919   0.70125
  Beta virt. eigenvalues --    0.72152   0.76357   0.79650   0.91470
          Condensed to atoms (all electrons):
              1          2          3          4          5          6
     1  C    4.925879   0.359297  -0.018257   0.194413   0.381721   0.381088
     2  C    0.359297   4.719187   0.262064  -0.012085  -0.020951  -0.019458
     3  O   -0.018257   0.262064   7.820850  -0.000349  -0.000532   0.000525
     4  H    0.194413  -0.012085  -0.000349   0.617754  -0.013003  -0.012605
     5  H    0.381721  -0.020951  -0.000532  -0.013003   0.609222  -0.021771
     6  H    0.381088  -0.019458   0.000525  -0.012605  -0.021771   0.616227
     7  H   -0.022405   0.373082  -0.015722   0.000964  -0.001559  -0.001352
     8  H   -0.023429   0.375403  -0.015384  -0.001829   0.001719  -0.001526
     9  H    0.002623  -0.040569   0.252404   0.000016   0.000014  -0.000075
    10  H   -0.046656  -0.000486   0.000045   0.187912  -0.000463  -0.000402
              7          8          9         10
     1  C   -0.022405  -0.023429   0.002623  -0.046656
     2  C    0.373082   0.375403  -0.040569  -0.000486
     3  O   -0.015722  -0.015384   0.252404   0.000045
     4  H    0.000964  -0.001829   0.000016   0.187912
     5  H   -0.001559   0.001719   0.000014  -0.000463
     6  H   -0.001352  -0.001526  -0.000075  -0.000402
     7  H    0.649173  -0.027976  -0.003313  -0.000014
     8  H   -0.027976   0.646489  -0.003462   0.000109
     9  H   -0.003313  -0.003462   0.620196  -0.000006
    10  H   -0.000014   0.000109  -0.000006   0.879499
 Mulliken atomic charges:
              1
     1  C   -0.134273
     2  C    0.004515
     3  O   -0.285645
     4  H    0.038812
     5  H    0.065602
     6  H    0.059349
     7  H    0.049122
     8  H    0.049886
     9  H    0.172171
    10  H   -0.019540
 Sum of Mulliken atomic charges =   0.00000
 Mulliken charges with hydrogens summed into heavy atoms:
              1
     1  C    0.009951
     2  C    0.103522
     3  O   -0.113474
 Sum of Mulliken charges with hydrogens summed into heavy atoms =   0.00000
          Atomic-Atomic Spin Densities.
              1          2          3          4          5          6
     1  C    0.823708  -0.013428  -0.000798   0.015441  -0.010831  -0.010439
     2  C   -0.013428  -0.069451   0.002573   0.002266   0.001450   0.001473
     3  O   -0.000798   0.002573   0.006592   0.000047   0.000084   0.000007
     4  H    0.015441   0.002266   0.000047  -0.261898   0.003064   0.002882
     5  H   -0.010831   0.001450   0.000084   0.003064  -0.040911   0.001787
     6  H   -0.010439   0.001473   0.000007   0.002882   0.001787  -0.041833
     7  H   -0.004393   0.001034  -0.000703  -0.000086  -0.000417  -0.000430
     8  H   -0.002504   0.002271   0.000061   0.000114   0.000059   0.000273
     9  H    0.000057   0.000300   0.000144   0.000001  -0.000004   0.000000
    10  H   -0.065657   0.001427   0.000022  -0.014558   0.001625   0.001564
              7          8          9         10
     1  C   -0.004393  -0.002504   0.000057  -0.065657
     2  C    0.001034   0.002271   0.000300   0.001427
     3  O   -0.000703   0.000061   0.000144   0.000022
     4  H   -0.000086   0.000114   0.000001  -0.014558
     5  H   -0.000417   0.000059  -0.000004   0.001625
     6  H   -0.000430   0.000273   0.000000   0.001564
     7  H    0.030879  -0.001822   0.000059  -0.000106
     8  H   -0.001822   0.009453   0.000054   0.000413
     9  H    0.000059   0.000054  -0.002301  -0.000001
    10  H   -0.000106   0.000413  -0.000001   0.717011
 Mulliken atomic spin densities:
              1
     1  C    0.731156
     2  C   -0.070084
     3  O    0.008028
     4  H   -0.252725
     5  H   -0.044095
     6  H   -0.044715
     7  H    0.024014
     8  H    0.008373
     9  H   -0.001692
    10  H    0.641740
 Sum of Mulliken atomic spin densities =   1.00000
 APT atomic charges:
              1
     1  C   -0.769410
     2  C   -0.508937
     3  O   -0.621712
     4  H   -0.077773
     5  H    0.307732
     6  H    0.413874
     7  H    0.315620
     8  H    0.315279
     9  H    0.453866
    10  H    0.171460
 Sum of APT charges=   0.00000
 APT Atomic charges with hydrogens summed into heavy atoms:
              1
     1  C    0.045884
     2  C    0.121962
     3  O   -0.167846
     4  H    0.000000
     5  H    0.000000
     6  H    0.000000
     7  H    0.000000
     8  H    0.000000
     9  H    0.000000
    10  H    0.000000
 Sum of APT charges=   0.00000
 Electronic spatial extent (au):  <R**2>=            223.9716
 Charge=              0.0000 electrons
 Dipole moment (field-independent basis, Debye):
    X=             -0.3112    Y=             -1.5323    Z=              0.5484  Tot=              1.6570
 Quadrupole moment (field-independent basis, Debye-Ang):
   XX=            -17.4748   YY=            -20.4134   ZZ=            -19.4459
   XY=              0.7961   XZ=             -1.1716   YZ=             -0.0664
 Traceless Quadrupole moment (field-independent basis, Debye-Ang):
   XX=              1.6366   YY=             -1.3020   ZZ=             -0.3345
   XY=              0.7961   XZ=             -1.1716   YZ=             -0.0664
 Octapole moment (field-independent basis, Debye-Ang**2):
  XXX=            -18.4240  YYY=             -1.6757  ZZZ=             -4.2616  XYY=             -3.5744
  XXY=             -2.3571  XXZ=             -0.1267  XZZ=             -3.7615  YZZ=             -0.2860
  YYZ=             -1.5273  XYZ=             -0.5525
 Hexadecapole moment (field-independent basis, Debye-Ang**3):
 XXXX=           -148.6089 YYYY=            -67.3934 ZZZZ=            -37.0588 XXXY=             -6.7686
 XXXZ=             -2.2034 YYYX=             -4.9033 YYYZ=             -0.2604 ZZZX=             -1.1247
 ZZZY=             -1.6306 XXYY=            -39.2877 XXZZ=            -33.9565 YYZZ=            -17.8259
 XXYZ=             -0.7066 YYXZ=              0.2786 ZZXY=             -1.3264
 N-N= 8.557384772013D+01 E-N=-7.900707962490D+02  KE= 2.266853624790D+02
  Exact polarizability:   0.000   0.000   0.000   0.000   0.000   0.000
 Approx polarizability:  12.048   0.774  14.271   0.381   1.261  10.531
                          Isotropic Fermi Contact Couplings
        Atom                 a.u.       MegaHertz       Gauss      10(-4) cm-1
     1  C(13)              0.26849     301.83784     107.70324     100.68227
     2  C(13)             -0.02984     -33.54506     -11.96971     -11.18943
     3  O(17)             -0.00248       1.50056       0.53544       0.50053
     4  H(1)              -0.09959    -445.15593    -158.84270    -148.48803
     5  H(1)              -0.01537     -68.71891     -24.52061     -22.92216
     6  H(1)              -0.01571     -70.23362     -25.06110     -23.42741
     7  H(1)               0.01166      52.11241      18.59500      17.38283
     8  H(1)               0.00359      16.04902       5.72669       5.35338
     9  H(1)              -0.00086      -3.85646      -1.37608      -1.28638
    10  H(1)               0.27352    1222.60261     436.25500     407.81633
 --------------------------------------------------------
       Center         ----  Spin Dipole Couplings  ----
                      3XX-RR        3YY-RR        3ZZ-RR
 --------------------------------------------------------
     1   Atom       -0.291603      0.374075     -0.082472
     2   Atom        0.007715     -0.003182     -0.004533
     3   Atom        0.010143      0.005242     -0.015385
     4   Atom       -0.137801      0.185000     -0.047199
     5   Atom       -0.050734     -0.020264      0.070997
     6   Atom        0.016476      0.018344     -0.034820
     7   Atom        0.007145     -0.001865     -0.005280
     8   Atom        0.004043      0.000673     -0.004715
     9   Atom        0.005455     -0.002261     -0.003194
    10   Atom        0.021717     -0.028820      0.007103
 --------------------------------------------------------
                        XY            XZ            YZ
 --------------------------------------------------------
     1   Atom        0.139947      0.081929      0.405923
     2   Atom        0.005153      0.001920     -0.001965
     3   Atom       -0.011273      0.005131     -0.007948
     4   Atom        0.078333      0.044357      0.192226
     5   Atom        0.006053     -0.002255     -0.015838
     6   Atom       -0.051127      0.027381     -0.006440
     7   Atom        0.008123     -0.000881     -0.003103
     8   Atom        0.007419     -0.010022     -0.003498
     9   Atom        0.002041     -0.000901      0.000022
    10   Atom       -0.012337     -0.007069     -0.030570
 --------------------------------------------------------


 ---------------------------------------------------------------------------------
              Anisotropic Spin Dipole Couplings in Principal Axis System
 ---------------------------------------------------------------------------------

       Atom             a.u.   MegaHertz   Gauss  10(-4) cm-1        Axes

              Baa    -0.3199   -42.933   -15.320   -14.321 -0.5020 -0.3590  0.7868
     1 C(13)  Bbb    -0.3198   -42.915   -15.313   -14.315  0.8477 -0.3847  0.3653
              Bcc     0.6397    85.847    30.633    28.636  0.1715  0.8504  0.4974
 
              Baa    -0.0075    -1.003    -0.358    -0.334 -0.3147  0.6810  0.6612
     2 C(13)  Bbb    -0.0024    -0.319    -0.114    -0.106  0.1845 -0.6394  0.7464
              Bcc     0.0098     1.321     0.471     0.441  0.9311  0.3569  0.0756
 
              Baa    -0.0182     1.314     0.469     0.438 -0.0543  0.2976  0.9532
     3 O(17)  Bbb    -0.0033     0.237     0.085     0.079  0.6725  0.7165 -0.1854
              Bcc     0.0214    -1.551    -0.554    -0.517  0.7381 -0.6309  0.2390
 
              Baa    -0.1559   -83.186   -29.683   -27.748  0.8599  0.0861 -0.5031
     4 H(1)   Bbb    -0.1556   -83.017   -29.622   -27.691  0.4711 -0.5132  0.7174
              Bcc     0.3115   166.203    59.305    55.439  0.1964  0.8539  0.4819
 
              Baa    -0.0519   -27.690    -9.880    -9.236  0.9815 -0.1911 -0.0066
     5 H(1)   Bbb    -0.0219   -11.661    -4.161    -3.890  0.1895  0.9671  0.1696
              Bcc     0.0738    39.350    14.041    13.126 -0.0260 -0.1677  0.9855
 
              Baa    -0.0519   -27.703    -9.885    -9.241 -0.5546 -0.3337  0.7623
     6 H(1)   Bbb    -0.0219   -11.701    -4.175    -3.903  0.4418  0.6583  0.6095
              Bcc     0.0739    39.404    14.060    13.144  0.7052 -0.6748  0.2177
 
              Baa    -0.0084    -4.478    -1.598    -1.494 -0.3377  0.7126  0.6149
     7 H(1)   Bbb    -0.0039    -2.055    -0.733    -0.685  0.4130 -0.4749  0.7771
              Bcc     0.0122     6.533     2.331     2.179  0.8458  0.5164 -0.1340
 
              Baa    -0.0114    -6.091    -2.173    -2.032  0.5810 -0.1238  0.8044
     8 H(1)   Bbb    -0.0038    -2.003    -0.715    -0.668 -0.3373  0.8629  0.3764
              Bcc     0.0152     8.093     2.888     2.700  0.7407  0.4900 -0.4596
 
              Baa    -0.0034    -1.798    -0.641    -0.600  0.1722 -0.3356  0.9261
     9 H(1)   Bbb    -0.0027    -1.427    -0.509    -0.476 -0.1884  0.9116  0.3654
              Bcc     0.0060     3.224     1.151     1.076  0.9669  0.2374 -0.0937
 
              Baa    -0.0492   -26.233    -9.361    -8.750  0.1967  0.8510  0.4870
    10 H(1)   Bbb     0.0246    13.108     4.677     4.372  0.9540 -0.2807  0.1052
              Bcc     0.0246    13.125     4.683     4.378 -0.2262 -0.4439  0.8670
 

 ---------------------------------------------------------------------------------

 No NMR shielding tensors so no spin-rotation constants.
 Leave Link  601 at Mon Feb  4 19:06:01 2019, MaxMem=   33554432 cpu:       0.2
 (Enter /home/programs/G09_64/g09/l701.exe)
 Compute integral second derivatives.
 ... and contract with generalized density number  0.
 Leave Link  701 at Mon Feb  4 19:06:01 2019, MaxMem=   33554432 cpu:       0.2
 (Enter /home/programs/G09_64/g09/l702.exe)
 L702 exits ... SP integral derivatives will be done elsewhere.
 Leave Link  702 at Mon Feb  4 19:06:01 2019, MaxMem=   33554432 cpu:       0.0
 (Enter /home/programs/G09_64/g09/l703.exe)
 Compute integral second derivatives, UseDBF=F ICtDFT=           0.
 Integral derivatives from FoFDir, PRISM(SPDF).
 Calling FoFJK, ICntrl=    100147 FMM=F ISym2X=0 I1Cent= 0 IOpClX= 1 NMat=1 NMatS=1 NMatT=0.
 FoFCou: FMM=F IPFlag=           0 FMFlag=      100000 FMFlg1=         800
         NFxFlg=           0 DoJE=F BraDBF=F KetDBF=F FulRan=T
         Omega=  0.000000  0.000000  1.000000  0.000000  0.000000 ICntrl=  100147 IOpCl=  1
         NMat0=    1 NMatS0=    1 NMatT0=    0 NMatD0=    1 NMtDS0=    0 NMtDT0=    0
         I1Cent=           0 NGrid=           0.
 Symmetry not used in FoFCou.
 Leave Link  703 at Mon Feb  4 19:06:01 2019, MaxMem=   33554432 cpu:       0.2
 (Enter /home/programs/G09_64/g09/l716.exe)
 Dipole        =-1.22442671D-01-6.02869201D-01 2.15743829D-01
 Polarizability= 0.00000000D+00 0.00000000D+00 0.00000000D+00
                 0.00000000D+00 0.00000000D+00 0.00000000D+00
 -------------------------------------------------------------------
 Center     Atomic                   Forces (Hartrees/Bohr)
 Number     Number              X              Y              Z
 -------------------------------------------------------------------
      1        6           0.000149376    0.000166962    0.000035958
      2        6          -0.000064241   -0.000072824   -0.000014201
      3        8           0.000078568    0.000036164   -0.000032766
      4        1           0.000016201    0.000175435    0.000118153
      5        1          -0.000022167   -0.000096995   -0.000029294
      6        1          -0.000033765   -0.000071125   -0.000061803
      7        1           0.000000067   -0.000009072    0.000006154
      8        1           0.000002055    0.000005806    0.000001075
      9        1          -0.000104492   -0.000029164    0.000031007
     10        1          -0.000021601   -0.000105188   -0.000054283
 -------------------------------------------------------------------
 Cartesian Forces:  Max     0.000175435 RMS     0.000073669
 Force constants in Cartesian coordinates: 
                1             2             3             4             5 
      1  0.715966D+00
      2 -0.130100D+00  0.431979D+00
      3 -0.120821D-01 -0.218231D+00  0.705452D+00
      4 -0.272375D+00 -0.624662D-01  0.577382D-01  0.732563D+00
      5 -0.714430D-01 -0.124440D+00  0.398415D-01  0.134365D-02  0.798296D+00
      6  0.478855D-01  0.329763D-01 -0.134231D+00  0.730590D-02 -0.787665D-02
      7 -0.381154D-01  0.294555D-01 -0.122222D-01 -0.245827D+00  0.176934D+00
      8 -0.677640D-02  0.181725D-01 -0.812328D-02  0.826232D-01 -0.246509D+00
      9  0.860465D-02 -0.129693D-01  0.865620D-02 -0.210690D-01  0.700866D-01
     10 -0.393965D-01  0.420447D-01  0.212001D-01 -0.525140D-02 -0.251065D-01
     11  0.466726D-01  0.120890D+00  0.932883D-01 -0.417277D-02 -0.227305D-01
     12  0.248336D-01  0.970449D-01 -0.773777D-03  0.327510D-03 -0.119077D-02
     13 -0.762977D-01  0.419376D-02  0.121942D-01  0.282969D-02 -0.775123D-02
     14  0.478436D-02 -0.685484D-01  0.847393D-01  0.622348D-03 -0.173113D-02
     15  0.135910D-01  0.100660D+00 -0.446804D+00 -0.302661D-02 -0.859215D-03
     16 -0.278490D+00  0.183486D+00 -0.702002D-01 -0.186813D-01  0.280493D-01
     17  0.195351D+00 -0.215905D+00  0.823269D-01 -0.156470D-01  0.139186D-01
     18 -0.636837D-01  0.733733D-01 -0.948766D-01  0.903651D-02 -0.101032D-01
     19 -0.981439D-02 -0.329609D-01 -0.157932D-01 -0.855914D-01 -0.658837D-01
     20 -0.393157D-02 -0.824220D-02 -0.576317D-02 -0.612340D-01 -0.342521D+00
     21  0.568944D-02  0.131292D-01  0.764669D-02 -0.295330D-01 -0.131303D+00
     22  0.171500D-02 -0.548140D-02  0.427117D-01 -0.748192D-01 -0.534362D-02
     23 -0.127283D-02 -0.116773D-02  0.159159D-01 -0.261453D-02 -0.851840D-01
     24 -0.159011D-02  0.229111D-03 -0.486730D-02  0.583722D-02  0.367369D-01
     25 -0.381592D-02  0.756578D-02 -0.359399D-02 -0.337613D-01 -0.329051D-01
     26  0.455939D-02 -0.526653D-02  0.287629D-02  0.592764D-01  0.371859D-02
     27 -0.183738D-02  0.255908D-02 -0.380855D-04 -0.275896D-01  0.596957D-03
     28  0.623919D-03 -0.357375D-01 -0.199524D-01  0.914080D-03  0.210599D-02
     29 -0.378436D-01 -0.147472D+00 -0.868702D-01  0.226880D-02  0.718274D-02
     30 -0.214109D-01 -0.887714D-01 -0.401632D-01  0.972880D-03  0.407086D-02
                6             7             8             9            10 
      6  0.820765D+00
      7 -0.703986D-01  0.769265D+00
      8  0.827871D-01  0.191576D-01  0.423808D+00
      9 -0.107956D+00 -0.103643D+00 -0.199201D+00  0.173984D+00
     10 -0.136390D-01  0.184028D-02  0.533238D-03  0.580897D-03  0.594183D-01
     11 -0.121445D-01  0.170592D-02  0.136312D-02  0.111677D-02 -0.505507D-01
     12 -0.658523D-03  0.252226D-03  0.197902D-03  0.508861D-03 -0.302000D-01
     13  0.427543D-01  0.337618D-02  0.316789D-04 -0.160986D-02 -0.469025D-03
     14  0.153388D-01  0.418125D-03  0.460792D-03 -0.719952D-03 -0.339387D-02
     15 -0.322185D-02 -0.724740D-03 -0.715624D-04  0.499471D-03 -0.499489D-03
     16 -0.121038D-01 -0.481608D-02 -0.512824D-02  0.347777D-02  0.360438D-02
     17 -0.522999D-02 -0.363546D-02 -0.212898D-02  0.199612D-02  0.126620D-01
     18  0.473388D-02  0.279098D-02  0.196027D-02 -0.535172D-03  0.799103D-02
     19 -0.299136D-01 -0.665667D-03  0.395304D-01  0.845301D-02 -0.440148D-02
     20 -0.140449D+00  0.712480D-02 -0.340205D-01 -0.520852D-02 -0.282944D-03
     21 -0.152177D+00  0.344591D-03  0.159005D-01  0.110232D-01  0.195097D-02
     22  0.562125D-02 -0.659475D-02  0.165066D-01 -0.345969D-01  0.115541D-02
     23  0.428417D-01  0.926916D-02 -0.106024D-01  0.357525D-01  0.743970D-03
     24 -0.429129D+00 -0.603502D-02  0.949451D-02 -0.568491D-02 -0.602646D-03
     25  0.218096D-01 -0.478387D+00 -0.146362D+00  0.139949D+00  0.462977D-03
     26 -0.115453D-01 -0.239944D+00 -0.150216D+00  0.109513D+00  0.676155D-05
     27  0.281259D-04  0.189918D+00  0.972679D-01 -0.803243D-01 -0.116685D-03
     28  0.678354D-03 -0.757823D-04 -0.115854D-03 -0.146425D-03 -0.169629D-01
     29  0.330199D-02 -0.485409D-03 -0.327390D-03 -0.366322D-03  0.233434D-01
     30  0.184586D-02 -0.281924D-03 -0.212412D-03 -0.170950D-03  0.133349D-01
               11            12            13            14            15 
     11 -0.148611D+00
     12 -0.123546D+00  0.177129D-02
     13 -0.170301D-02 -0.603072D-02  0.696099D-01
     14 -0.113942D-01 -0.323096D-01  0.190302D-02  0.734635D-01
     15  0.452492D-03 -0.103710D-01 -0.153598D-01 -0.983086D-01  0.456944D+00
     16 -0.120654D-01 -0.249483D-02  0.600724D-02 -0.491117D-02  0.544435D-02
     17 -0.223520D-01  0.253108D-03  0.332762D-02 -0.820854D-03 -0.460406D-02
     18 -0.188786D-01 -0.205896D-02 -0.323294D-01  0.271392D-01 -0.971815D-03
     19 -0.415418D-02  0.113603D-03  0.158849D-02  0.142779D-02 -0.148152D-03
     20  0.162337D-02  0.101971D-02  0.114021D-02  0.896901D-03 -0.163246D-04
     21  0.210774D-02  0.931428D-03 -0.872011D-03 -0.321780D-03  0.765352D-03
     22  0.744350D-03 -0.900432D-04 -0.749532D-02 -0.272138D-02  0.437446D-03
     23  0.834511D-03  0.533668D-03 -0.252272D-02  0.242096D-03  0.459626D-03
     24 -0.716039D-03  0.283414D-03  0.506642D-03 -0.801214D-04  0.883790D-03
     25  0.179165D-03  0.102992D-05  0.791661D-03  0.134719D-03 -0.319774D-03
     26 -0.225792D-03  0.133626D-04 -0.380857D-04 -0.163594D-03 -0.390861D-04
     27 -0.112138D-03 -0.129625D-03 -0.106208D-03 -0.428508D-05  0.111161D-03
     28  0.233439D-01  0.132876D-01  0.588809D-04  0.173606D-02  0.605798D-03
     29  0.806027D-01  0.579834D-01  0.141876D-02  0.759492D-02  0.232642D-02
     30  0.584318D-01  0.104969D-01  0.852973D-03  0.452693D-02  0.216484D-02
               16            17            18            19            20 
     16  0.289278D+00
     17 -0.193411D+00  0.218983D+00
     18  0.753824D-01 -0.769681D-01  0.901568D-01
     19  0.214269D-02  0.108101D-02  0.555179D-04  0.897029D-01
     20  0.254406D-03  0.848566D-03  0.261666D-03  0.583490D-01  0.369357D+00
     21 -0.428702D-03 -0.224018D-03  0.191804D-04  0.323659D-01  0.142834D+00
     22  0.192079D-02  0.450491D-03 -0.894757D-03  0.323466D-02  0.679960D-04
     23  0.125946D-03  0.181016D-03 -0.584086D-03  0.112015D-02  0.978703D-02
     24 -0.171812D-03 -0.289715D-03  0.685708D-03  0.312365D-02  0.768397D-02
     25 -0.164341D-02 -0.852621D-03  0.654645D-03  0.341691D-02 -0.153257D-02
     26  0.136369D-02  0.114072D-02 -0.628497D-03  0.237962D-03  0.271425D-02
     27 -0.515005D-03 -0.342091D-03  0.539045D-03  0.113188D-02 -0.622161D-05
     28  0.677626D-03  0.674170D-03  0.996845D-03  0.387328D-03  0.447078D-04
     29  0.223640D-02  0.613469D-02  0.442811D-02  0.125256D-02 -0.443859D-03
     30  0.160982D-02  0.308184D-02  0.230798D-02  0.611276D-03 -0.355898D-03
               21            22            23            24            25 
     21  0.144923D+00
     22 -0.101894D-01  0.778554D-01
     23 -0.413692D-01 -0.293020D-02  0.845623D-01
     24 -0.127666D-01 -0.149635D-02 -0.523848D-01  0.448523D+00
     25  0.761837D-03  0.301570D-02 -0.203580D-02  0.359231D-03  0.509932D+00
     26 -0.233937D-03 -0.123548D-02  0.131128D-02 -0.102886D-02  0.175776D+00
     27 -0.846570D-05 -0.132262D-02 -0.100725D-02  0.187404D-02 -0.159610D+00
     28 -0.896224D-04  0.122773D-04  0.116853D-03  0.691872D-04 -0.119760D-04
     29 -0.519794D-03 -0.573878D-04  0.358448D-04  0.355106D-03  0.329174D-04
     30 -0.357231D-03 -0.180269D-03 -0.158061D-03  0.197700D-03 -0.120964D-04
               26            27            28            29            30 
     26  0.146840D+00
     27 -0.989813D-01  0.779262D-01
     28 -0.189211D-05  0.472886D-04  0.143765D-01
     29  0.147519D-03  0.293090D-04  0.783356D-02  0.465450D-01
     30  0.543087D-04  0.219232D-04  0.450335D-02  0.193320D-01  0.236562D-01
 Force constants in internal coordinates: 
                1             2             3             4             5 
      1  0.402072D+00
      2  0.444631D-02  0.670036D-01
      3 -0.172926D-02 -0.243054D-02  0.481222D+00
      4 -0.246688D-02 -0.250178D-02 -0.580832D-02  0.480156D+00
      5  0.153368D-01 -0.693194D-03 -0.548611D-03 -0.820518D-03  0.517035D+00
      6  0.209795D-02 -0.145545D-02  0.338671D-04  0.152876D-03  0.138756D-01
      7  0.143975D-03 -0.338503D-03 -0.772407D-03  0.250731D-03  0.134115D-01
      8 -0.131569D-02 -0.257723D-03 -0.357862D-03  0.378514D-03 -0.250383D-01
      9 -0.458798D-02  0.178194D+00 -0.965488D-03 -0.921478D-03  0.304483D-03
     10  0.746820D-02  0.463726D-02 -0.272851D-02 -0.283672D-02 -0.234839D-02
     11  0.143452D-01 -0.101250D-01  0.354874D-02 -0.576091D-02 -0.390020D-02
     12  0.149998D-01 -0.964391D-02 -0.532098D-02  0.394807D-02  0.494688D-02
     13 -0.117992D-01  0.846753D-02  0.120371D-03  0.508717D-04  0.162699D-02
     14 -0.117981D-01  0.828202D-02 -0.368799D-04  0.322876D-04 -0.319761D-03
     15 -0.160573D-01  0.114912D-02  0.427874D-02  0.440008D-02 -0.995084D-04
     16  0.154705D-01 -0.358266D-02 -0.269423D-02  0.450037D-02  0.835277D-02
     17  0.107025D-01  0.514460D-02 -0.753009D-03 -0.192986D-02 -0.191580D-01
     18  0.116373D-01 -0.110566D-02  0.264045D-02 -0.184756D-02 -0.189211D-01
     19 -0.140293D-01 -0.361487D-03  0.925836D-03 -0.763608D-03  0.159471D-01
     20 -0.137202D-01  0.871797D-03  0.282410D-03 -0.837098D-03  0.154623D-01
     21 -0.969209D-02 -0.795771D-03 -0.320996D-03  0.715072D-03 -0.302018D-02
     22  0.652035D-02 -0.199377D-03 -0.266357D-03  0.659512D-03  0.684639D-01
     23 -0.162748D-02 -0.203728D-03  0.503141D-03  0.524712D-03 -0.680601D-04
     24 -0.220474D-03  0.415312D-03  0.670964D-03 -0.645012D-03  0.474172D-04
     25  0.184797D-03 -0.102920D-02  0.217210D-02 -0.188243D-02 -0.926480D-03
     26 -0.948845D-03 -0.549935D-03  0.119081D-02 -0.122137D-02  0.120516D-01
     27  0.197033D-03  0.817542D-03  0.188435D-02 -0.252923D-02 -0.134653D-01
     28  0.169641D-02 -0.851612D-02  0.170095D-02  0.316249D-02  0.803861D-03
     29  0.562772D-03 -0.803686D-02  0.719660D-03  0.382356D-02  0.137820D-01
     30  0.170865D-02 -0.666938D-02  0.141320D-02  0.251569D-02 -0.117350D-01
     31 -0.915702D-03  0.649307D-02 -0.267208D-02 -0.135130D-02  0.581083D-04
     32 -0.204934D-02  0.697234D-02 -0.365336D-02 -0.690231D-03  0.130362D-01
     33 -0.903466D-03  0.833981D-02 -0.295982D-02 -0.199809D-02 -0.124807D-01
     34 -0.533693D-03  0.226986D-02 -0.129510D-02 -0.429972D-04 -0.959485D-04
     35 -0.150524D-01 -0.156388D-02  0.792814D-03 -0.756821D-04  0.842040D-02
     36  0.154610D-01 -0.896592D-03  0.398663D-03  0.800517D-04 -0.850250D-02
                6             7             8             9            10 
      6  0.451059D+00
      7 -0.319104D-02  0.455906D+00
      8  0.497360D-03  0.560397D-03  0.641784D+00
      9  0.487613D-03  0.411792D-03 -0.617328D-04  0.593803D-01
     10  0.125353D-02 -0.159279D-02 -0.642159D-03 -0.370188D-02  0.932717D-01
     11 -0.166655D-02  0.190998D-02 -0.110918D-02  0.604666D-02 -0.188762D-01
     12 -0.851793D-03 -0.110257D-02  0.132979D-02  0.559946D-02 -0.181611D-01
     13  0.473538D-03  0.215326D-03  0.466812D-03 -0.434519D-02 -0.354260D-01
     14  0.260358D-03  0.638276D-03 -0.103201D-03 -0.432209D-02 -0.351501D-01
     15  0.789294D-03 -0.128923D-03  0.350358D-04 -0.858650D-03  0.156029D-01
     16 -0.394057D-02 -0.364462D-02  0.920267D-02  0.117343D-02 -0.879861D-02
     17  0.167996D-02 -0.469280D-02 -0.183248D-03 -0.205913D-02  0.131412D-01
     18 -0.487853D-02  0.152476D-02 -0.303415D-03  0.212106D-03 -0.459657D-02
     19  0.267366D-02  0.417095D-03 -0.465603D-02  0.380463D-03 -0.163163D-02
     20  0.527413D-03  0.246682D-02 -0.468518D-02 -0.236359D-03  0.427057D-02
     21  0.396298D-02  0.391139D-02  0.505786D-03  0.459914D-03 -0.200943D-02
     22 -0.373116D-02 -0.371815D-02  0.208524D-01  0.177091D-03 -0.176350D-02
     23 -0.360268D-03 -0.615159D-04  0.352138D-04  0.457691D-04 -0.242942D-02
     24 -0.350189D-04 -0.433817D-05 -0.536562D-04 -0.432476D-05 -0.885239D-04
     25 -0.229823D-02  0.242833D-02 -0.235496D-03  0.526757D-03 -0.184875D-02
     26 -0.435006D-03 -0.214806D-02 -0.378986D-03  0.462776D-03 -0.127261D-02
     27  0.251310D-02  0.741529D-03 -0.485618D-04 -0.461820D-04  0.123225D-02
     28 -0.271012D-02  0.206831D-02  0.235337D-03  0.471246D-02 -0.630965D-02
     29 -0.846895D-03 -0.250808D-02  0.918474D-04  0.464848D-02 -0.573350D-02
     30  0.210121D-02  0.381514D-03  0.422272D-03  0.413952D-02 -0.322865D-02
     31 -0.167954D-02  0.156904D-02  0.113017D-05 -0.388058D-02  0.337767D-02
     32  0.183690D-03 -0.300735D-02 -0.142360D-03 -0.394456D-02  0.395381D-02
     33  0.313180D-02 -0.117759D-03  0.188065D-03 -0.445352D-02  0.645866D-02
     34  0.241991D-02 -0.220420D-02  0.976287D-04 -0.744629D-03  0.614552D-02
     35  0.123077D-02  0.566836D-02 -0.271642D-02  0.812130D-03 -0.343878D-02
     36 -0.587466D-02 -0.115582D-02  0.281027D-02  0.136947D-03 -0.264011D-02
               11            12            13            14            15 
     11  0.126175D+00
     12 -0.302307D-01  0.124864D+00
     13 -0.425838D-01  0.132349D-01  0.474805D-01
     14  0.133459D-01 -0.420430D-01  0.835880D-02  0.466862D-01
     15 -0.553899D-01 -0.554074D-01  0.128648D-01  0.127615D-01  0.771511D-01
     16 -0.172237D-01  0.277597D-01  0.701326D-02 -0.559723D-02 -0.410019D-02
     17 -0.342636D-02 -0.950493D-02 -0.278512D-02 -0.972233D-03  0.463208D-02
     18  0.201679D-01 -0.119023D-01 -0.481158D-02  0.411561D-02 -0.364957D-02
     19  0.639001D-02 -0.641359D-02 -0.105892D-02  0.227107D-02  0.454649D-03
     20 -0.117493D-02 -0.579666D-02 -0.392771D-03  0.964440D-03  0.276328D-02
     21 -0.409913D-02  0.492565D-02  0.174062D-02 -0.633774D-03 -0.478923D-05
     22 -0.268695D-02  0.780396D-02  0.899690D-03 -0.218171D-02 -0.252566D-02
     23 -0.190227D-03 -0.309670D-03  0.134704D-02  0.121941D-02  0.454609D-03
     24  0.107566D-03  0.288791D-04  0.351452D-03 -0.396171D-03 -0.192088D-04
     25  0.925014D-02 -0.743545D-02  0.514896D-02 -0.436379D-02 -0.856224D-03
     26  0.439417D-02 -0.398207D-02  0.647406D-02 -0.561869D-02 -0.932137D-05
     27  0.904336D-02 -0.103379D-01  0.421103D-02 -0.458264D-02  0.558294D-03
     28  0.750370D-03  0.518448D-02 -0.626679D-02 -0.144784D-03  0.541669D-02
     29 -0.410561D-02  0.863786D-02 -0.494169D-02 -0.139968D-02  0.626359D-02
     30  0.543589D-03  0.228203D-02 -0.720472D-02 -0.363634D-03  0.683120D-02
     31 -0.375677D-02  0.165876D-02  0.697891D-03  0.646568D-02 -0.736716D-02
     32 -0.861274D-02  0.511213D-02  0.202299D-02  0.521078D-02 -0.652026D-02
     33 -0.396355D-02 -0.124369D-02 -0.240042D-03  0.624683D-02 -0.595264D-02
     34 -0.813917D-02  0.772329D-03  0.682535D-03 -0.186865D-02  0.300540D-02
     35  0.320651D-02 -0.134600D-02  0.276745D-03  0.152472D-02 -0.364666D-03
     36  0.491393D-02  0.509903D-03 -0.955852D-03  0.185626D-03 -0.247804D-02
               16            17            18            19            20 
     16  0.179637D+00
     17 -0.419853D-01  0.943117D-01
     18 -0.447167D-01 -0.115568D-01  0.971832D-01
     19 -0.642264D-01 -0.343571D-01  0.253434D-01  0.737887D-01
     20 -0.638697D-01  0.246784D-01 -0.345781D-01  0.723867D-02  0.740173D-01
     21  0.307132D-01 -0.282670D-01 -0.290049D-01 -0.740163D-02 -0.711896D-02
     22  0.379714D-01 -0.658457D-02 -0.680784D-02 -0.149409D-01 -0.151167D-01
     23  0.137005D-03 -0.138893D-03 -0.261640D-03  0.171219D-04  0.417733D-04
     24 -0.118350D-03  0.506972D-04 -0.117809D-03  0.629652D-04  0.840335D-04
     25 -0.335933D-02  0.283653D-02  0.118424D-03 -0.141396D-01  0.153270D-01
     26  0.308780D-02 -0.768226D-02 -0.341579D-02  0.156594D-01 -0.929061D-04
     27 -0.968315D-02  0.588850D-02  0.106821D-01  0.149194D-02 -0.142996D-01
     28  0.350134D-02 -0.583847D-04 -0.269318D-02 -0.154915D-01  0.137927D-01
     29  0.994847D-02 -0.105772D-01 -0.622739D-02  0.143075D-01 -0.162722D-02
     30 -0.282247D-02  0.299358D-02  0.787052D-02  0.140085D-03 -0.158339D-01
     31  0.261110D-03  0.444447D-02 -0.461096D-02 -0.160889D-01  0.158564D-01
     32  0.670824D-02 -0.607433D-02 -0.814517D-02  0.137101D-01  0.436450D-03
     33 -0.606271D-02  0.749643D-02  0.595273D-02 -0.457330D-03 -0.137702D-01
     34  0.589769D-03  0.315484D-01 -0.323176D-01 -0.102547D-01  0.103168D-01
     35 -0.232793D-01 -0.369024D-01 -0.494594D-02  0.280470D-01  0.163340D-01
     36  0.225721D-01  0.517300D-02  0.375664D-01 -0.162092D-01 -0.282055D-01
               21            22            23            24            25 
     21  0.394841D-01
     22  0.466611D-02  0.310872D+00
     23  0.193461D-03 -0.810436D-04  0.383769D-01
     24  0.387162D-04  0.458003D-04  0.982357D-05  0.155287D-01
     25 -0.713710D-03 -0.804125D-03  0.146581D-03  0.310728D-03  0.187965D-01
     26 -0.803525D-02  0.281805D-03  0.167372D-03  0.345669D-03  0.119039D-02
     27  0.667396D-02 -0.178511D-02  0.170684D-03  0.353982D-03  0.203027D-02
     28  0.777963D-03  0.751320D-03  0.134679D-03 -0.126840D-03  0.831345D-02
     29 -0.654357D-02  0.183725D-02  0.155470D-03 -0.918991D-04 -0.929271D-02
     30  0.816563D-02 -0.229669D-03  0.158782D-03 -0.835867D-04 -0.845283D-02
     31  0.870190D-04 -0.848762D-04 -0.689224D-04 -0.214944D-03  0.797217D-02
     32 -0.723452D-02  0.100105D-02 -0.481308D-04 -0.180003D-03 -0.963399D-02
     33  0.747469D-02 -0.106586D-02 -0.448188D-04 -0.171691D-03 -0.879410D-02
     34  0.198470D-03 -0.542306D-04  0.672428D-04  0.671617D-04 -0.535021D-02
     35  0.199554D-01 -0.708978D-02  0.140420D-03  0.417824D-04  0.197397D-02
     36 -0.201765D-01  0.686770D-02 -0.141981D-03 -0.103922D-03  0.213846D-02
               26            27            28            29            30 
     26  0.175455D-01
     27  0.147675D-02  0.190381D-01
     28 -0.848560D-02 -0.912537D-02  0.195534D-01
     29  0.786951D-02 -0.967889D-02  0.275438D-02  0.199166D-01
     30 -0.819924D-02  0.788242D-02  0.211461D-02  0.236819D-02  0.184499D-01
     31 -0.881469D-02 -0.879560D-02  0.714927D-02 -0.963759D-02 -0.961849D-02
     32  0.754042D-02 -0.934912D-02 -0.964978D-02  0.752463D-02 -0.936491D-02
     33 -0.852833D-02  0.821219D-02 -0.102895D-01 -0.100238D-01  0.671675D-02
     34  0.163152D-02  0.149817D-02 -0.537548D-02  0.160626D-02  0.147291D-02
     35 -0.468928D-03 -0.482098D-03  0.195592D-02 -0.486983D-03 -0.500153D-03
     36 -0.649474D-03 -0.460765D-03  0.214634D-02 -0.641599D-03 -0.452891D-03
               31            32            33            34            35 
     31  0.190032D-01
     32  0.221633D-02  0.193907D-01
     33  0.223543D-02  0.250120D-02  0.192417D-01
     34 -0.331826D-02  0.366348D-02  0.353013D-02  0.238594D-01
     35  0.896966D-03 -0.154593D-02 -0.155910D-02 -0.917428D-02  0.340925D-01
     36  0.994326D-03 -0.179361D-02 -0.160490D-02 -0.943069D-02 -0.203362D-01
               36 
     36  0.343534D-01
 Leave Link  716 at Mon Feb  4 19:06:01 2019, MaxMem=   33554432 cpu:       0.0
 (Enter /home/programs/G09_64/g09/l103.exe)

 GradGradGradGradGradGradGradGradGradGradGradGradGradGradGradGradGradGrad
 Berny optimization.
 Red2BG is reusing G-inverse.
 Internal  Forces:  Max     0.000120203 RMS     0.000044853
 Search for a saddle point.
 Step number   1 out of a maximum of   46
 All quantities printed in internal units (Hartrees-Bohrs-Radians)
 Swaping is turned off.
 Second derivative matrix not updated -- analytic derivatives used.
 ITU=  0
     Eigenvalues ---   -0.11968   0.00170   0.00477   0.01550   0.03826
     Eigenvalues ---    0.04615   0.05368   0.07178   0.07812   0.12364
     Eigenvalues ---    0.13909   0.15788   0.16850   0.19825   0.24126
     Eigenvalues ---    0.24417   0.32051   0.41175   0.44861   0.45782
     Eigenvalues ---    0.47541   0.48712   0.54584   0.64756
 Eigenvectors required to have negative eigenvalues:
                          R9        R2        D4        D5        D9
   1                    0.70364  -0.69378  -0.05357  -0.05106   0.04985
                          D6        A4        A5        A2        D8
   1                   -0.04590   0.04576   0.04573  -0.04535   0.04469
 RFO step:  Lambda0=1.255575033D-07 Lambda=-5.96685434D-07.
 Linear search not attempted -- option 19 set.
 Iteration  1 RMS(Cart)=  0.00121451 RMS(Int)=  0.00000082
 Iteration  2 RMS(Cart)=  0.00000086 RMS(Int)=  0.00000026
 Variable       Old X    -DE/DX   Delta X   Delta X   Delta X     New X
                                 (Linear)    (Quad)   (Total)
    R1        2.90025   0.00010   0.00000   0.00036   0.00036   2.90061
    R2        2.44377   0.00009   0.00000  -0.00057  -0.00057   2.44320
    R3        2.05158   0.00001   0.00000   0.00004   0.00004   2.05162
    R4        2.05188   0.00000   0.00000   0.00004   0.00004   2.05192
    R5        2.71314   0.00002   0.00000   0.00002   0.00002   2.71316
    R6        2.07695   0.00001   0.00000   0.00000   0.00000   2.07695
    R7        2.07408   0.00000   0.00000   0.00000   0.00000   2.07408
    R8        1.87248   0.00011   0.00000   0.00017   0.00017   1.87265
    R9        1.75340  -0.00012   0.00000   0.00033   0.00033   1.75373
    A1        1.89000  -0.00001   0.00000   0.00029   0.00029   1.89029
    A2        1.96717  -0.00006   0.00000  -0.00068  -0.00068   1.96649
    A3        1.96560  -0.00005   0.00000  -0.00064  -0.00064   1.96496
    A4        1.84157   0.00007   0.00000   0.00105   0.00105   1.84262
    A5        1.84581   0.00006   0.00000   0.00084   0.00084   1.84665
    A6        1.94422   0.00001   0.00000  -0.00060  -0.00060   1.94362
    A7        1.89567   0.00001   0.00000   0.00001   0.00001   1.89569
    A8        1.90765   0.00000   0.00000  -0.00007  -0.00007   1.90758
    A9        1.91080  -0.00001   0.00000   0.00000   0.00000   1.91080
   A10        1.93770   0.00000   0.00000   0.00006   0.00006   1.93776
   A11        1.94266   0.00000   0.00000  -0.00001  -0.00001   1.94265
   A12        1.86905   0.00000   0.00000   0.00001   0.00001   1.86906
   A13        1.81369   0.00003   0.00000   0.00010   0.00010   1.81379
   A14        3.14272   0.00000   0.00000  -0.00008  -0.00008   3.14264
   A15        3.13094  -0.00001   0.00000  -0.00037  -0.00037   3.13058
    D1        1.08909   0.00000   0.00000   0.00216   0.00216   1.09125
    D2       -3.07760   0.00001   0.00000   0.00219   0.00219  -3.07541
    D3       -1.03541   0.00001   0.00000   0.00216   0.00216  -1.03325
    D4       -0.94144  -0.00004   0.00000   0.00108   0.00108  -0.94036
    D5        1.17506  -0.00004   0.00000   0.00111   0.00111   1.17617
    D6       -3.06594  -0.00004   0.00000   0.00108   0.00108  -3.06486
    D7        3.12391   0.00004   0.00000   0.00301   0.00300   3.12692
    D8       -1.04277   0.00005   0.00000   0.00304   0.00304  -1.03973
    D9        0.99942   0.00004   0.00000   0.00301   0.00301   1.00243
   D10       -3.13675   0.00001   0.00000   0.00038   0.00038  -3.13637
   D11        1.04850   0.00000   0.00000   0.00042   0.00042   1.04892
   D12       -1.03185   0.00000   0.00000   0.00038   0.00038  -1.03146
         Item               Value     Threshold  Converged?
 Maximum Force            0.000120     0.000450     YES
 RMS     Force            0.000045     0.000300     YES
 Maximum Displacement     0.002789     0.001800     NO 
 RMS     Displacement     0.001215     0.001200     NO 
 Predicted change in Energy=-2.355639D-07
 GradGradGradGradGradGradGradGradGradGradGradGradGradGradGradGradGradGrad

 Leave Link  103 at Mon Feb  4 19:06:01 2019, MaxMem=   33554432 cpu:       0.0
 (Enter /home/programs/G09_64/g09/l202.exe)
                          Input orientation:                          
 ---------------------------------------------------------------------
 Center     Atomic      Atomic             Coordinates (Angstroms)
 Number     Number       Type             X           Y           Z
 ---------------------------------------------------------------------
      1          6           0        1.250065   -0.014859   -0.164022
      2          6           0       -0.133997   -0.513419    0.273975
      3          8           0       -1.116085    0.457907   -0.117679
      4          1           0        1.499482    1.090233    0.458968
      5          1           0        1.291333    0.230548   -1.220788
      6          1           0        2.046790   -0.697873    0.114810
      7          1           0       -0.334109   -1.487415   -0.194272
      8          1           0       -0.139573   -0.670536    1.360212
      9          1           0       -1.972191    0.072715    0.199679
     10          1           0        1.682130    1.880168    0.910510
 ---------------------------------------------------------------------
                    Distance matrix (angstroms):
                    1          2          3          4          5
     1  C    0.000000
     2  C    1.534937   0.000000
     3  O    2.413363   1.435745   0.000000
     4  H    1.292885   2.296557   2.752007   0.000000
     5  H    1.085671   2.195306   2.657857   1.898411   0.000000
     6  H    1.085830   2.194354   3.375449   1.901398   1.793461
     7  H    2.163086   1.099076   2.098007   3.230022   2.578215
     8  H    2.164323   1.097556   2.100267   2.568861   3.085613
     9  H    3.243899   1.930811   0.990963   3.626994   3.562756
    10  H    2.220907   3.071279   3.303030   0.928035   2.723307
                    6          7          8          9         10
     6  H    0.000000
     7  H    2.527367   0.000000
     8  H    2.516337   1.766793   0.000000
     9  H    4.093069   2.296196   2.292978   0.000000
    10  H    2.722575   4.077546   3.166532   4.138385   0.000000
 Symmetry turned off by external request.
 Stoichiometry    C2H7O(2)
 Framework group  C1[X(C2H7O)]
 Deg. of freedom    24
 Full point group                 C1      NOp   1
 Rotational constants (GHZ):     25.1408864      8.4270794      7.3623032
 Leave Link  202 at Mon Feb  4 19:06:01 2019, MaxMem=   33554432 cpu:       0.0
 (Enter /home/programs/G09_64/g09/l301.exe)
 Standard basis: STO-3G (5D, 7F)
 Ernie: Thresh=  0.10000D-02 Tol=  0.10000D-05 Strict=F.
 Integral buffers will be    131072 words long.
 Raffenetti 2 integral format.
 Two-electron integral symmetry is turned off.
    22 basis functions,    66 primitive gaussians,    22 cartesian basis functions
    14 alpha electrons       13 beta electrons
       nuclear repulsion energy        85.5699072564 Hartrees.
 IExCor=    0 DFT=F Ex=HF Corr=None ExCW=0 ScaHFX=  1.000000
 ScaDFX=  1.000000  1.000000  1.000000  1.000000 ScalE2=  1.000000  1.000000
 IRadAn=      0 IRanWt=     -1 IRanGd=            0 ICorTp=0
 NAtoms=   10 NActive=   10 NUniq=   10 SFac= 1.00D+00 NAtFMM=   50 NAOKFM=F Big=F
 Leave Link  301 at Mon Feb  4 19:06:01 2019, MaxMem=   33554432 cpu:       0.1
 (Enter /home/programs/G09_64/g09/l302.exe)
 NPDir=0 NMtPBC=     1 NCelOv=     1 NCel=       1 NClECP=     1 NCelD=      1
         NCelK=      1 NCelE2=     1 NClLst=     1 CellRange=     0.0.
 One-electron integrals computed using PRISM.
 NBasis=    22 RedAO= T  NBF=    22
 NBsUse=    22 1.00D-06 NBFU=    22
 Leave Link  302 at Mon Feb  4 19:06:01 2019, MaxMem=   33554432 cpu:       0.1
 (Enter /home/programs/G09_64/g09/l303.exe)
 DipDrv:  MaxL=1.
 Leave Link  303 at Mon Feb  4 19:06:01 2019, MaxMem=   33554432 cpu:       0.0
 (Enter /home/programs/G09_64/g09/l401.exe)
 Initial guess read from the read-write file.
 B after Tr=     0.000000    0.000000    0.000000
         Rot=    1.000000    0.000000    0.000000    0.000000 Ang=   0.00 deg.
 Guess basis will be translated and rotated to current coordinates.
 Initial guess <Sx>= 0.0000 <Sy>= 0.0000 <Sz>= 0.5000 <S**2>= 0.7872 S= 0.5184
 Leave Link  401 at Mon Feb  4 19:06:02 2019, MaxMem=   33554432 cpu:       0.1
 (Enter /home/programs/G09_64/g09/l502.exe)
 UHF open shell SCF:
 Requested convergence on RMS density matrix=1.00D-08 within 128 cycles.
 Requested convergence on MAX density matrix=1.00D-06.
 Requested convergence on             energy=1.00D-06.
 No special actions if energy rises.
 Using DIIS extrapolation, IDIIS=  1040.
 Two-electron integral symmetry not used.
 Keep R1 and R2 ints in memory in canonical form, NReq=884165.
 IEnd=       19882 IEndB=       19882 NGot=    33554432 MDV=    33487407
 LenX=    33487407 LenY=    33486482
 Symmetry not used in FoFDir.
 MinBra= 0 MaxBra= 1 Meth= 1.
 IRaf=       0 NMat=   1 IRICut=       1 DoRegI=T DoRafI=F ISym2E= 0 JSym2E=0.

 Cycle   1  Pass 1  IDiag  1:
 E= -152.563621331631    
 DIIS: error= 1.03D-04 at cycle   1 NSaved=   1.
 NSaved= 1 IEnMin= 1 EnMin= -152.563621331631     IErMin= 1 ErrMin= 1.03D-04
 ErrMax= 1.03D-04 EMaxC= 1.00D-01 BMatC= 1.80D-06 BMatP= 1.80D-06
 IDIUse=3 WtCom= 9.99D-01 WtEn= 1.03D-03
 Coeff-Com:  0.100D+01
 Coeff-En:   0.100D+01
 Coeff:      0.100D+01
 Gap=     0.858 Goal=   None    Shift=    0.000
 Gap=     0.603 Goal=   None    Shift=    0.000
 RMSDP=5.39D-05 MaxDP=2.41D-04              OVMax= 0.00D+00

 Cycle   2  Pass 1  IDiag  1:
 E= -152.563622395599     Delta-E=       -0.000001063967 Rises=F Damp=F
 DIIS: error= 3.68D-05 at cycle   2 NSaved=   2.
 NSaved= 2 IEnMin= 2 EnMin= -152.563622395599     IErMin= 2 ErrMin= 3.68D-05
 ErrMax= 3.68D-05 EMaxC= 1.00D-01 BMatC= 2.44D-07 BMatP= 1.80D-06
 IDIUse=1 WtCom= 1.00D+00 WtEn= 0.00D+00
 Coeff-Com: -0.510D+00 0.151D+01
 Coeff:     -0.510D+00 0.151D+01
 Gap=     0.858 Goal=   None    Shift=    0.000
 Gap=     0.603 Goal=   None    Shift=    0.000
 RMSDP=3.20D-05 MaxDP=1.58D-04 DE=-1.06D-06 OVMax= 0.00D+00

 Cycle   3  Pass 1  IDiag  1:
 E= -152.563622588197     Delta-E=       -0.000000192598 Rises=F Damp=F
 DIIS: error= 1.25D-05 at cycle   3 NSaved=   3.
 NSaved= 3 IEnMin= 3 EnMin= -152.563622588197     IErMin= 3 ErrMin= 1.25D-05
 ErrMax= 1.25D-05 EMaxC= 1.00D-01 BMatC= 1.07D-08 BMatP= 2.44D-07
 IDIUse=1 WtCom= 1.00D+00 WtEn= 0.00D+00
 Coeff-Com:  0.299D+00-0.949D+00 0.165D+01
 Coeff:      0.299D+00-0.949D+00 0.165D+01
 Gap=     0.858 Goal=   None    Shift=    0.000
 Gap=     0.603 Goal=   None    Shift=    0.000
 RMSDP=8.39D-06 MaxDP=6.10D-05 DE=-1.93D-07 OVMax= 0.00D+00

 Cycle   4  Pass 1  IDiag  1:
 E= -152.563622600342     Delta-E=       -0.000000012145 Rises=F Damp=F
 DIIS: error= 4.88D-06 at cycle   4 NSaved=   4.
 NSaved= 4 IEnMin= 4 EnMin= -152.563622600342     IErMin= 4 ErrMin= 4.88D-06
 ErrMax= 4.88D-06 EMaxC= 1.00D-01 BMatC= 1.11D-09 BMatP= 1.07D-08
 IDIUse=1 WtCom= 1.00D+00 WtEn= 0.00D+00
 Coeff-Com: -0.522D-01 0.176D+00-0.562D+00 0.144D+01
 Coeff:     -0.522D-01 0.176D+00-0.562D+00 0.144D+01
 Gap=     0.858 Goal=   None    Shift=    0.000
 Gap=     0.603 Goal=   None    Shift=    0.000
 RMSDP=2.86D-06 MaxDP=2.76D-05 DE=-1.21D-08 OVMax= 0.00D+00

 Cycle   5  Pass 1  IDiag  1:
 E= -152.563622601727     Delta-E=       -0.000000001385 Rises=F Damp=F
 DIIS: error= 1.54D-06 at cycle   5 NSaved=   5.
 NSaved= 5 IEnMin= 5 EnMin= -152.563622601727     IErMin= 5 ErrMin= 1.54D-06
 ErrMax= 1.54D-06 EMaxC= 1.00D-01 BMatC= 1.94D-10 BMatP= 1.11D-09
 IDIUse=1 WtCom= 1.00D+00 WtEn= 0.00D+00
 Coeff-Com: -0.969D-02 0.255D-01 0.926D-01-0.756D+00 0.165D+01
 Coeff:     -0.969D-02 0.255D-01 0.926D-01-0.756D+00 0.165D+01
 Gap=     0.858 Goal=   None    Shift=    0.000
 Gap=     0.603 Goal=   None    Shift=    0.000
 RMSDP=1.25D-06 MaxDP=1.18D-05 DE=-1.39D-09 OVMax= 0.00D+00

 Cycle   6  Pass 1  IDiag  1:
 E= -152.563622601977     Delta-E=       -0.000000000249 Rises=F Damp=F
 DIIS: error= 4.27D-07 at cycle   6 NSaved=   6.
 NSaved= 6 IEnMin= 6 EnMin= -152.563622601977     IErMin= 6 ErrMin= 4.27D-07
 ErrMax= 4.27D-07 EMaxC= 1.00D-01 BMatC= 2.60D-11 BMatP= 1.94D-10
 IDIUse=1 WtCom= 1.00D+00 WtEn= 0.00D+00
 Coeff-Com:  0.101D-01-0.335D-01 0.873D-01-0.165D+00-0.222D+00 0.132D+01
 Coeff:      0.101D-01-0.335D-01 0.873D-01-0.165D+00-0.222D+00 0.132D+01
 Gap=     0.858 Goal=   None    Shift=    0.000
 Gap=     0.603 Goal=   None    Shift=    0.000
 RMSDP=5.00D-07 MaxDP=4.15D-06 DE=-2.49D-10 OVMax= 0.00D+00

 Cycle   7  Pass 1  IDiag  1:
 E= -152.563622602007     Delta-E=       -0.000000000030 Rises=F Damp=F
 DIIS: error= 1.77D-07 at cycle   7 NSaved=   7.
 NSaved= 7 IEnMin= 7 EnMin= -152.563622602007     IErMin= 7 ErrMin= 1.77D-07
 ErrMax= 1.77D-07 EMaxC= 1.00D-01 BMatC= 2.93D-12 BMatP= 2.60D-11
 IDIUse=1 WtCom= 1.00D+00 WtEn= 0.00D+00
 Coeff-Com: -0.242D-02 0.866D-02-0.394D-01 0.138D+00-0.104D+00-0.435D+00
 Coeff-Com:  0.143D+01
 Coeff:     -0.242D-02 0.866D-02-0.394D-01 0.138D+00-0.104D+00-0.435D+00
 Coeff:      0.143D+01
 Gap=     0.858 Goal=   None    Shift=    0.000
 Gap=     0.603 Goal=   None    Shift=    0.000
 RMSDP=1.24D-07 MaxDP=8.80D-07 DE=-3.02D-11 OVMax= 0.00D+00

 Cycle   8  Pass 1  IDiag  1:
 E= -152.563622602010     Delta-E=       -0.000000000003 Rises=F Damp=F
 DIIS: error= 8.01D-08 at cycle   8 NSaved=   8.
 NSaved= 8 IEnMin= 8 EnMin= -152.563622602010     IErMin= 8 ErrMin= 8.01D-08
 ErrMax= 8.01D-08 EMaxC= 1.00D-01 BMatC= 6.05D-13 BMatP= 2.93D-12
 IDIUse=1 WtCom= 1.00D+00 WtEn= 0.00D+00
 Coeff-Com:  0.256D-03-0.130D-02 0.149D-01-0.722D-01 0.101D+00 0.128D+00
 Coeff-Com: -0.103D+01 0.186D+01
 Coeff:      0.256D-03-0.130D-02 0.149D-01-0.722D-01 0.101D+00 0.128D+00
 Coeff:     -0.103D+01 0.186D+01
 Gap=     0.858 Goal=   None    Shift=    0.000
 Gap=     0.603 Goal=   None    Shift=    0.000
 RMSDP=6.95D-08 MaxDP=4.70D-07 DE=-2.90D-12 OVMax= 0.00D+00

 Cycle   9  Pass 1  IDiag  1:
 E= -152.563622602010     Delta-E=       -0.000000000001 Rises=F Damp=F
 DIIS: error= 3.27D-08 at cycle   9 NSaved=   9.
 NSaved= 9 IEnMin= 9 EnMin= -152.563622602010     IErMin= 9 ErrMin= 3.27D-08
 ErrMax= 3.27D-08 EMaxC= 1.00D-01 BMatC= 7.07D-14 BMatP= 6.05D-13
 IDIUse=1 WtCom= 1.00D+00 WtEn= 0.00D+00
 Coeff-Com:  0.339D-03-0.113D-02 0.311D-02-0.649D-02-0.729D-02 0.495D-01
 Coeff-Com: -0.136D-01-0.425D+00 0.140D+01
 Coeff:      0.339D-03-0.113D-02 0.311D-02-0.649D-02-0.729D-02 0.495D-01
 Coeff:     -0.136D-01-0.425D+00 0.140D+01
 Gap=     0.858 Goal=   None    Shift=    0.000
 Gap=     0.603 Goal=   None    Shift=    0.000
 RMSDP=2.51D-08 MaxDP=1.68D-07 DE=-5.68D-13 OVMax= 0.00D+00

 Cycle  10  Pass 1  IDiag  1:
 E= -152.563622602010     Delta-E=        0.000000000000 Rises=F Damp=F
 DIIS: error= 1.23D-08 at cycle  10 NSaved=  10.
 NSaved=10 IEnMin=10 EnMin= -152.563622602010     IErMin=10 ErrMin= 1.23D-08
 ErrMax= 1.23D-08 EMaxC= 1.00D-01 BMatC= 9.43D-15 BMatP= 7.07D-14
 IDIUse=1 WtCom= 1.00D+00 WtEn= 0.00D+00
[...]
     29 -0.654347D-02  0.183702D-02  0.155604D-03 -0.944258D-04 -0.929159D-02
     30  0.816890D-02 -0.229279D-03  0.159649D-03 -0.864758D-04 -0.845009D-02
     31  0.875888D-04 -0.843287D-04 -0.705416D-04 -0.215060D-03  0.797026D-02
     32 -0.723371D-02  0.100248D-02 -0.489959D-04 -0.180206D-03 -0.963447D-02
     33  0.747866D-02 -0.106382D-02 -0.449512D-04 -0.172256D-03 -0.879298D-02
     34  0.199474D-03 -0.592438D-04  0.679233D-04  0.670097D-04 -0.534903D-02
     35  0.199525D-01 -0.709495D-02  0.140888D-03  0.412852D-04  0.197579D-02
     36 -0.201747D-01  0.686369D-02 -0.143416D-03 -0.103631D-03  0.213617D-02
               26            27            28            29            30 
     26  0.175442D-01
     27  0.147740D-02  0.190392D-01
     28 -0.848492D-02 -0.912565D-02  0.195612D-01
     29  0.786985D-02 -0.967921D-02  0.276312D-02  0.199246D-01
     30 -0.819698D-02  0.788257D-02  0.212239D-02  0.237550D-02  0.184550D-01
     31 -0.881366D-02 -0.879685D-02  0.713926D-02 -0.964467D-02 -0.962785D-02
     32  0.754110D-02 -0.935040D-02 -0.965881D-02  0.751677D-02 -0.937474D-02
     33 -0.852572D-02  0.821137D-02 -0.102995D-01 -0.100323D-01  0.670481D-02
     34  0.163080D-02  0.149997D-02 -0.537531D-02  0.160452D-02  0.147368D-02
     35 -0.466439D-03 -0.481147D-03  0.195648D-02 -0.485744D-03 -0.500453D-03
     36 -0.650399D-03 -0.462016D-03  0.214475D-02 -0.641829D-03 -0.453445D-03
               31            32            33            34            35 
     31  0.190114D-01
     32  0.222743D-02  0.194030D-01
     33  0.224425D-02  0.251150D-02  0.192486D-01
     34 -0.331738D-02  0.366245D-02  0.353162D-02  0.238576D-01
     35  0.899253D-03 -0.154297D-02 -0.155768D-02 -0.917397D-02  0.340916D-01
     36  0.991321D-03 -0.179525D-02 -0.160687D-02 -0.942965D-02 -0.203362D-01
               36 
     36  0.343519D-01
 Leave Link  716 at Mon Feb  4 19:06:04 2019, MaxMem=   33554432 cpu:       0.1
 (Enter /home/programs/G09_64/g09/l103.exe)

 GradGradGradGradGradGradGradGradGradGradGradGradGradGradGradGradGradGrad
 Berny optimization.
 Red2BG is reusing G-inverse.
 Internal  Forces:  Max     0.000000190 RMS     0.000000072
 Search for a saddle point.
 Step number   1 out of a maximum of    2
 All quantities printed in internal units (Hartrees-Bohrs-Radians)
 Swaping is turned off.
 Second derivative matrix not updated -- analytic derivatives used.
 ITU=  0
     Eigenvalues ---   -0.11958   0.00170   0.00477   0.01550   0.03825
     Eigenvalues ---    0.04613   0.05378   0.07178   0.07812   0.12367
     Eigenvalues ---    0.13909   0.15793   0.16861   0.19834   0.24132
     Eigenvalues ---    0.24419   0.32049   0.41152   0.44861   0.45781
     Eigenvalues ---    0.47537   0.48707   0.54575   0.64723
 Eigenvectors required to have negative eigenvalues:
                          R9        R2        D4        D5        D9
   1                    0.70406  -0.69345  -0.05339  -0.05089   0.04970
                          D6        A5        A4        A2        D8
   1                   -0.04573   0.04554   0.04549  -0.04531   0.04453
 Angle between quadratic step and forces=  64.56 degrees.
 Linear search not attempted -- option 19 set.
 Iteration  1 RMS(Cart)=  0.00000071 RMS(Int)=  0.00000000
 Variable       Old X    -DE/DX   Delta X   Delta X   Delta X     New X
                                 (Linear)    (Quad)   (Total)
    R1        2.90061   0.00000   0.00000   0.00000   0.00000   2.90061
    R2        2.44320   0.00000   0.00000   0.00000   0.00000   2.44320
    R3        2.05162   0.00000   0.00000   0.00000   0.00000   2.05162
    R4        2.05192   0.00000   0.00000   0.00000   0.00000   2.05192
    R5        2.71316   0.00000   0.00000   0.00000   0.00000   2.71316
    R6        2.07695   0.00000   0.00000   0.00000   0.00000   2.07695
    R7        2.07408   0.00000   0.00000   0.00000   0.00000   2.07408
    R8        1.87265   0.00000   0.00000   0.00000   0.00000   1.87265
    R9        1.75373   0.00000   0.00000   0.00000   0.00000   1.75373
    A1        1.89029   0.00000   0.00000   0.00000   0.00000   1.89029
    A2        1.96649   0.00000   0.00000   0.00000   0.00000   1.96649
    A3        1.96496   0.00000   0.00000   0.00000   0.00000   1.96496
    A4        1.84262   0.00000   0.00000   0.00000   0.00000   1.84262
    A5        1.84665   0.00000   0.00000   0.00000   0.00000   1.84665
    A6        1.94362   0.00000   0.00000   0.00000   0.00000   1.94362
    A7        1.89569   0.00000   0.00000   0.00000   0.00000   1.89569
    A8        1.90758   0.00000   0.00000   0.00000   0.00000   1.90758
    A9        1.91080   0.00000   0.00000   0.00000   0.00000   1.91080
   A10        1.93776   0.00000   0.00000   0.00000   0.00000   1.93775
   A11        1.94265   0.00000   0.00000   0.00000   0.00000   1.94265
   A12        1.86906   0.00000   0.00000   0.00000   0.00000   1.86906
   A13        1.81379   0.00000   0.00000   0.00000   0.00000   1.81379
   A14        3.14264   0.00000   0.00000   0.00000   0.00000   3.14264
   A15        3.13058   0.00000   0.00000   0.00000   0.00000   3.13058
    D1        1.09125   0.00000   0.00000   0.00000   0.00000   1.09125
    D2       -3.07541   0.00000   0.00000   0.00000   0.00000  -3.07541
    D3       -1.03325   0.00000   0.00000   0.00000   0.00000  -1.03325
    D4       -0.94036   0.00000   0.00000   0.00000   0.00000  -0.94036
    D5        1.17617   0.00000   0.00000   0.00000   0.00000   1.17617
    D6       -3.06486   0.00000   0.00000   0.00000   0.00000  -3.06486
    D7        3.12692   0.00000   0.00000   0.00000   0.00000   3.12692
    D8       -1.03973   0.00000   0.00000   0.00000   0.00000  -1.03974
    D9        1.00243   0.00000   0.00000   0.00000   0.00000   1.00243
   D10       -3.13637   0.00000   0.00000   0.00000   0.00000  -3.13637
   D11        1.04892   0.00000   0.00000   0.00000   0.00000   1.04892
   D12       -1.03146   0.00000   0.00000   0.00000   0.00000  -1.03146
         Item               Value     Threshold  Converged?
 Maximum Force            0.000000     0.000450     YES
 RMS     Force            0.000000     0.000300     YES
 Maximum Displacement     0.000002     0.001800     YES
 RMS     Displacement     0.000001     0.001200     YES
 Predicted change in Energy=-4.259122D-13
 Optimization completed.
    -- Stationary point found.
                           ----------------------------
                           !   Optimized Parameters   !
                           ! (Angstroms and Degrees)  !
 --------------------------                            --------------------------
 ! Name  Definition              Value          Derivative Info.                !
 --------------------------------------------------------------------------------
 ! R1    R(1,2)                  1.5349         -DE/DX =    0.0                 !
 ! R2    R(1,4)                  1.2929         -DE/DX =    0.0                 !
 ! R3    R(1,5)                  1.0857         -DE/DX =    0.0                 !
 ! R4    R(1,6)                  1.0858         -DE/DX =    0.0                 !
 ! R5    R(2,3)                  1.4357         -DE/DX =    0.0                 !
 ! R6    R(2,7)                  1.0991         -DE/DX =    0.0                 !
 ! R7    R(2,8)                  1.0976         -DE/DX =    0.0                 !
 ! R8    R(3,9)                  0.991          -DE/DX =    0.0                 !
 ! R9    R(4,10)                 0.928          -DE/DX =    0.0                 !
 ! A1    A(2,1,4)              108.3054         -DE/DX =    0.0                 !
 ! A2    A(2,1,5)              112.6717         -DE/DX =    0.0                 !
 ! A3    A(2,1,6)              112.5839         -DE/DX =    0.0                 !
 ! A4    A(4,1,5)              105.5744         -DE/DX =    0.0                 !
 ! A5    A(4,1,6)              105.8053         -DE/DX =    0.0                 !
 ! A6    A(5,1,6)              111.3614         -DE/DX =    0.0                 !
 ! A7    A(1,2,3)              108.615          -DE/DX =    0.0                 !
 ! A8    A(1,2,7)              109.296          -DE/DX =    0.0                 !
 ! A9    A(1,2,8)              109.4805         -DE/DX =    0.0                 !
 ! A10   A(3,2,7)              111.0252         -DE/DX =    0.0                 !
 ! A11   A(3,2,8)              111.3059         -DE/DX =    0.0                 !
 ! A12   A(7,2,8)              107.089          -DE/DX =    0.0                 !
 ! A13   A(2,3,9)              103.9224         -DE/DX =    0.0                 !
 ! A14   L(1,4,10,2,-1)        180.0602         -DE/DX =    0.0                 !
 ! A15   L(1,4,10,2,-2)        179.3688         -DE/DX =    0.0                 !
 ! D1    D(4,1,2,3)             62.5238         -DE/DX =    0.0                 !
 ! D2    D(4,1,2,7)           -176.2079         -DE/DX =    0.0                 !
 ! D3    D(4,1,2,8)            -59.2006         -DE/DX =    0.0                 !
 ! D4    D(5,1,2,3)            -53.8789         -DE/DX =    0.0                 !
 ! D5    D(5,1,2,7)             67.3895         -DE/DX =    0.0                 !
 ! D6    D(5,1,2,8)           -175.6033         -DE/DX =    0.0                 !
 ! D7    D(6,1,2,3)            179.1593         -DE/DX =    0.0                 !
 ! D8    D(6,1,2,7)            -59.5723         -DE/DX =    0.0                 !
 ! D9    D(6,1,2,8)             57.4349         -DE/DX =    0.0                 !
 ! D10   D(1,2,3,9)           -179.7008         -DE/DX =    0.0                 !
 ! D11   D(7,2,3,9)             60.0987         -DE/DX =    0.0                 !
 ! D12   D(8,2,3,9)            -59.0985         -DE/DX =    0.0                 !
 --------------------------------------------------------------------------------
 GradGradGradGradGradGradGradGradGradGradGradGradGradGradGradGradGradGrad

 Leave Link  103 at Mon Feb  4 19:06:04 2019, MaxMem=   33554432 cpu:       0.0
 (Enter /home/programs/G09_64/g09/l9999.exe)
 1\1\GINC-AF2CIQUS\Freq\UHF\STO-3G\C2H7O1(2)\RAMOS\04-Feb-2019\0\\#P Ge
 om=AllCheck Guess=TCheck SCRF=Check GenChk UHF/STO-3G Freq\\--\\0,2\C,
 1.2500648589,-0.0148589264,-0.164021892\C,-0.1339970822,-0.5134185886,
 0.2739748094\O,-1.1160847605,0.4579073476,-0.1176792824\H,1.4994817138
 ,1.0902325083,0.4589677076\H,1.2913333349,0.2305476865,-1.2207880195\H
 ,2.0467897613,-0.6978732135,0.1148101259\H,-0.3341087898,-1.4874148908
 ,-0.1942721863\H,-0.139572713,-0.6705361396,1.3602121068\H,-1.97219110
 86,0.0727150682,0.199679358\H,1.6821297852,1.8801681483,0.9105102725\\
 Version=AM64L-G09RevB.01\HF=-152.5636226\S2=0.787124\S2-1=0.\S2A=0.750
 316\RMSD=1.529e-09\RMSF=1.331e-07\ZeroPoint=0.0915956\Thermal=0.096253
 3\Dipole=-0.1221081,-0.6021507,0.2164913\DipoleDeriv=0.0596323,0.13340
 2,0.0302799,0.1547759,0.3477836,0.1728773,0.0529825,0.1711051,0.098494
 4,0.4806353,-0.0078282,0.042708,-0.1143904,0.1554982,0.0331004,-0.0292
 559,-0.0073568,0.2488317,-0.2166757,0.1708631,-0.1303644,0.113394,-0.2
 430596,-0.1384336,-0.0881346,-0.1360512,-0.386095,-0.0146302,-0.106185
 7,-0.0459267,-0.1491538,-0.3967536,-0.2199242,-0.072778,-0.2371893,-0.
 0938046,-0.012068,-0.0260576,0.0113892,-0.0292923,-0.025237,-0.0383013
 ,0.0060868,0.0229147,-0.0157392,-0.0448815,-0.0243349,-0.0188741,0.009
 056,-0.027311,0.0061047,0.0099963,-0.025574,0.0029187,-0.1018887,-0.07
 86215,-0.0454286,0.0306191,-0.071715,-0.0191927,-0.0085469,-0.0118715,
 -0.0145383,-0.0678852,0.0027092,0.0417223,0.041911,-0.0189311,0.000156
 1,-0.0110419,0.0218801,-0.0829133,-0.0728112,-0.1010839,0.0947002,-0.1
 179241,0.112318,0.1042552,0.1063759,0.0986541,0.2101065,-0.009427,0.03
 71376,0.0197941,0.0610047,0.1674073,0.099358,0.0343159,0.1034889,0.032
 739\Polar=17.8490032,1.9220654,18.6026567,0.6382687,2.742584,13.057371
 7\PolarDeriv=0.5817616,1.5452311,-1.4668312,-0.8980773,-0.4193285,-0.2
 722674,2.0652545,-1.4721229,-1.7345406,-0.2890005,-1.6940483,-0.911329
 9,-0.9434479,-0.1771023,-1.4431648,-0.4489865,-0.9928237,2.2709513,0.2
 061255,-1.3619304,1.7084975,1.1867291,0.354132,0.2646947,-3.4937874,2.
 3135528,2.7448033,0.292994,1.7545978,0.7313414,2.2523785,0.0840347,1.7
 38432,0.2746083,1.178095,-2.5282843,1.1925989,2.4711577,-0.3977837,-1.
 6206387,0.1472171,-0.0480385,3.7969727,-1.5998924,3.5079644,0.1837633,
 -1.5637336,-0.0940045,-2.3232102,0.4457403,-0.5750253,-0.3265987,1.702
 0656,-1.4350802,0.0681959,-0.0645654,-0.0315889,0.1476564,-0.0021826,-
 0.0024813,-0.0971446,0.146502,0.3909189,-0.0883888,0.2342196,0.1075352
 ,0.2086765,0.008594,0.0829943,0.0570881,0.2917964,-0.0692161,0.4470098
 ,-0.0079455,0.2384309,-2.2442571,-0.0101357,0.2653135,-0.2895015,0.524
 0334,1.1742329,-0.0712375,-1.6524354,0.5591433,-0.2265742,-0.0527102,0
 .0846213,0.7513067,0.5427504,-5.906215,4.4121174,-2.2539445,0.7231211,
 0.5063537,0.1928668,0.1510158,-0.9805751,2.2463496,-2.8294201,0.061968
 5,0.7133861,0.1206842,0.2993949,0.0060158,0.6605433,1.7958657,-1.12256
 04,0.3970354,-0.8838945,-2.1836702,-0.6154712,-1.2342556,-0.2315056,-0
 .1571127,0.0216392,-0.9390124,-6.1234709,-0.1184494,-1.5315049,-0.2077
 552,-0.5734338,-0.3164461,-0.8030189,-0.573715,-2.4632976,-1.5363462,0
 .1250278,-0.3279125,-0.281115,2.2099851,-0.0099752,-0.0959454,0.329721
 ,-0.2395729,-1.4427194,-0.1836382,2.0183011,-0.2701646,0.025188,-0.028
 8806,0.0961077,-0.1136012,-1.1895821,5.5180896,-7.8620866,-0.3882104,-
 0.0435553,0.6273832,-0.0472052,-0.1044652,-1.4828417,-2.0130526,-0.701
 917,0.0924593,0.4674793,-0.0117178,1.2639015,-0.0564855,0.081867,-2.27
 48199,-0.3446084,0.7574224,1.7131442,2.5717901,0.1662958,1.3191212,0.0
 261168,-0.0007135,0.130263,1.0332155,5.0141485,0.1195293,1.2537383,-0.
 0237321,0.0171268,0.0872398,0.0766435,0.8588525,2.3981649,2.5316431\Hy
 perPolar=-3.5147915,-4.0760389,10.7458607,9.111529,7.2493691,1.4598195
 ,7.7919589,2.5924263,2.8678743,1.6710339\PG=C01 [X(C2H7O1)]\NImag=1\\0
 .71540901,-0.13029862,0.43305559,-0.01209750,-0.21762579,0.70538890,-0
 .27212070,-0.06241629,0.05770723,0.73234750,-0.07137863,-0.12452974,0.
 03979173,0.00119874,0.79833025,0.04782526,0.03291519,-0.13423014,0.007
 29278,-0.00778971,0.82079016,-0.03809763,0.02942767,-0.01224048,-0.245
 93940,0.17680794,-0.07066922,0.76900814,-0.00679680,0.01816352,-0.0081
 3286,0.08258261,-0.24617214,0.08292856,0.01906025,0.42323306,0.0086145
 5,-0.01297231,0.00866814,-0.02121331,0.07026843,-0.10815706,-0.1034686
 6,-0.19952086,0.17452291,-0.03946070,0.04204012,0.02122804,-0.00524791
 ,-0.02511994,-0.01365615,0.00183716,0.00053865,0.00058226,0.05938121,0
 .04665056,0.12031970,0.09320073,-0.00415081,-0.02270883,-0.01213352,0.
 00169229,0.00136480,0.00111446,-0.05056904,-0.14821993,0.02486504,0.09
 698454,-0.00079430,0.00034400,-0.00118274,-0.00065193,0.00024889,0.000
 20122,0.00050918,-0.03027917,-0.12360290,0.00157383,-0.07624792,0.0042
 7092,0.01188715,0.00282974,-0.00776478,0.04277735,0.00338456,0.0000333
 7,-0.00161029,-0.00047694,-0.00168791,-0.00604633,0.06959523,0.0048392
 0,-0.06862732,0.08456128,0.00063267,-0.00172194,0.01535151,0.00042096,
 0.00046051,-0.00072244,-0.00339715,-0.01129136,-0.03228029,0.00181675,
 0.07348174,0.01329335,0.10052060,-0.44683256,-0.00301901,-0.00084393,-
 0.00325603,-0.00073055,-0.00007296,0.00050160,-0.00049357,0.00050664,-
 0.01033575,-0.01505918,-0.09822223,0.45696372,-0.27819179,0.18361597,-
 0.06980561,-0.01871244,0.02807448,-0.01208499,-0.00481893,-0.00512703,
 0.00348682,0.00362199,-0.01209489,-0.00249905,0.00597762,-0.00488562,0
 .00543271,0.28902575,0.19551073,-0.21648715,0.08205515,-0.01564727,0.0
 1392567,-0.00520789,-0.00363993,-0.00212602,0.00200024,0.01266376,-0.0
 2227381,0.00026799,0.00334174,-0.00082736,-0.00460115,-0.19356799,0.21
 951057,-0.06327263,0.07306474,-0.09464665,0.00904120,-0.01011602,0.004
 72806,0.00278348,0.00196236,-0.00053801,0.00800763,-0.01885791,-0.0020
 5647,-0.03233515,0.02719982,-0.00095545,0.07497543,-0.07672440,0.08991
 970,-0.00978395,-0.03297046,-0.01576078,-0.08549430,-0.06569528,-0.029
 72844,-0.00069334,0.03954986,0.00841059,-0.00440678,-0.00416019,0.0001
 1366,0.00158214,0.00142541,-0.00014760,0.00214948,0.00107685,0.0000503
 4,0.08960779,-0.00391763,-0.00825318,-0.00576184,-0.06105978,-0.342918
 76,-0.14028697,0.00714736,-0.03397201,-0.00514844,-0.00028349,0.001623
 15,0.00102318,0.00113898,0.00089466,-0.00001621,0.00026052,0.00085646,
 0.00026253,0.05814936,0.36975053,0.00567867,0.01314673,0.00763314,-0.0
 2936142,-0.13113461,-0.15189826,0.00032567,0.01595967,0.01101492,0.001
 95129,0.00210090,0.00092910,-0.00087161,-0.00032393,0.00076349,-0.0004
 3249,-0.00022687,0.00002169,0.03219328,0.14263220,0.14463175,0.0017194
 9,-0.00543686,0.04269941,-0.07481554,-0.00533929,0.00571129,-0.0065997
 0,0.01647033,-0.03463824,0.00115789,0.00074318,-0.00009108,-0.00749763
 ,-0.00272179,0.00044178,0.00191562,0.00044776,-0.00089800,0.00323619,0
 .00004958,-0.01015739,0.07785230,-0.00127885,-0.00115183,0.01593086,-0
 .00260627,-0.08510305,0.04246153,0.00925159,-0.01053825,0.03574046,0.0
 0074426,0.00083403,0.00053461,-0.00252767,0.00023844,0.00046286,0.0001
 2214,0.00017762,-0.00058078,0.00113206,0.00975111,-0.04140056,-0.00292
 053,0.08444617,-0.00158522,0.00022426,-0.00486935,0.00591116,0.0363600
 6,-0.42920850,-0.00604753,0.00949771,-0.00574785,-0.00060565,-0.000719
 92,0.00028374,0.00050810,-0.00008017,0.00088282,-0.00016868,-0.0002887
 8,0.00068252,0.00312251,0.00766210,-0.01273141,-0.00156657,-0.05198346
 ,0.44863184,-0.00381774,0.00756751,-0.00359809,-0.03376172,-0.03289371
 ,0.02185126,-0.47800673,-0.14619594,0.13998191,0.00046147,0.00017697,0
 .00000041,0.00079367,0.00013566,-0.00032142,-0.00164565,-0.00085465,0.
 00065317,0.00341412,-0.00152939,0.00076378,0.00301871,-0.00203424,0.00
 036231,0.50955576,0.00455543,-0.00525276,0.00287658,0.05920630,0.00372
 312,-0.01153691,-0.23968776,-0.15008536,0.10960594,0.00000692,-0.00022
 518,0.00001262,-0.00003802,-0.00016401,-0.00003880,0.00136215,0.001139
 60,-0.00062726,0.00023808,0.00271165,-0.00023621,-0.00123635,0.0013086
 8,-0.00102834,0.17559472,0.14669750,-0.00184467,0.00256834,-0.00004539
 ,-0.02767077,0.00057207,0.00003636,0.19007749,0.09739061,-0.08060268,-
 0.00011585,-0.00011196,-0.00012952,-0.00010561,-0.00000406,0.00011162,
 -0.00051729,-0.00034439,0.00054030,0.00113243,-0.00000994,-0.00000802,
 -0.00132137,-0.00100795,0.00187743,-0.15968145,-0.09908190,0.07819788,
 0.00059192,-0.03579997,-0.02001938,0.00091478,0.00211046,0.00068087,-0
 .00007412,-0.00011530,-0.00014562,-0.01686741,0.02339982,0.01334363,0.
 00005952,0.00173391,0.00060347,0.00067834,0.00066900,0.00099453,0.0003
 8864,0.00004448,-0.00008978,0.00001267,0.00011753,0.00006959,-0.000011
 89,-0.00000147,0.00004709,0.01430757,-0.03788539,-0.14723684,-0.086895
 84,0.00226008,0.00717541,0.00329821,-0.00048037,-0.00032810,-0.0003654
 8,0.02337590,0.08057743,0.05804176,0.00141661,0.00755664,0.00230519,0.
 00224027,0.00610441,0.00441692,0.00125431,-0.00044362,-0.00051732,-0.0
 0005602,0.00003709,0.00035654,0.00003306,0.00014676,0.00002917,0.00784
 155,0.04641081,-0.02147684,-0.08882631,-0.04027179,0.00096815,0.004074
 72,0.00184735,-0.00027910,-0.00021344,-0.00017115,0.01338118,0.0585034
 7,0.01067213,0.00085559,0.00452052,0.00215655,0.00161313,0.00307010,0.
 00230431,0.00061399,-0.00035662,-0.00035640,-0.00017982,-0.00015756,0.
 00019877,-0.00001188,0.00005427,0.00002201,0.00451560,0.01933084,0.023
 59822\\0.00000007,0.00000053,0.00000030,0.00000006,-0.00000006,-0.0000
 0013,0.00000001,0.,0.00000001,-0.00000007,-0.00000019,-0.00000011,-0.0
 0000007,-0.00000015,-0.00000004,-0.00000010,-0.00000017,-0.00000006,0.
 00000002,-0.00000002,0.,0.00000003,0.,0.,0.00000003,0.,0.,0.,0.0000000
 4,0.00000002\\\@


 SACRED COWS MAKE GREAT HAMBURGERS -- ROBERT REISNER
 Job cpu time:  0 days  0 hours  0 minutes  2.0 seconds.
 File lengths (MBytes):  RWF=      5 Int=      0 D2E=      0 Chk=      1 Scr=      1
 Normal termination of Gaussian 09 at Mon Feb  4 19:06:04 2019.
