 Entering Gaussian System, Link 0=/home/programs/G09_64/g09/g09
 Initial command:
 /home/programs/G09_64/g09/l1.exe /scratch/Gau-25841.inp -scrdir=/scratch/
 Entering Link 1 = /home/programs/G09_64/g09/l1.exe PID=     25843.
  
 Copyright (c) 1988,1990,1992,1993,1995,1998,2003,2009,2010,
            Gaussian, Inc.  All Rights Reserved.
  
 This is part of the Gaussian(R) 09 program.  It is based on
 the Gaussian(R) 03 system (copyright 2003, Gaussian, Inc.),
 the Gaussian(R) 98 system (copyright 1998, Gaussian, Inc.),
 the Gaussian(R) 94 system (copyright 1995, Gaussian, Inc.),
 the Gaussian 92(TM) system (copyright 1992, Gaussian, Inc.),
 the Gaussian 90(TM) system (copyright 1990, Gaussian, Inc.),
 the Gaussian 88(TM) system (copyright 1988, Gaussian, Inc.),
 the Gaussian 86(TM) system (copyright 1986, Carnegie Mellon
 University), and the Gaussian 82(TM) system (copyright 1983,
 Carnegie Mellon University). Gaussian is a federally registered
 trademark of Gaussian, Inc.
  
 This software contains proprietary and confidential information,
 including trade secrets, belonging to Gaussian, Inc.
  
 This software is provided under written license and may be
 used, copied, transmitted, or stored only in accord with that
 written license.
  
 The following legend is applicable only to US Government
 contracts under FAR:
  
                    RESTRICTED RIGHTS LEGEND
  
 Use, reproduction and disclosure by the US Government is
 subject to restrictions as set forth in subparagraphs (a)
 and (c) of the Commercial Computer Software - Restricted
 Rights clause in FAR 52.227-19.
  
 Gaussian, Inc.
 340 Quinnipiac St., Bldg. 40, Wallingford CT 06492
  
  
 ---------------------------------------------------------------
 Warning -- This program may not be used in any manner that
 competes with the business of Gaussian, Inc. or will provide
 assistance to any competitor of Gaussian, Inc.  The licensee
 of this program is prohibited from giving any competitor of
 Gaussian, Inc. access to this program.  By using this program,
 the user acknowledges that Gaussian, Inc. is engaged in the
 business of creating and licensing software in the field of
 computational chemistry and represents and warrants to the
 licensee that it is not a competitor of Gaussian, Inc. and that
 it will not use this program in any manner prohibited above.
 ---------------------------------------------------------------
  

 Cite this work as:
 Gaussian 09, Revision B.01,
 M. J. Frisch, G. W. Trucks, H. B. Schlegel, G. E. Scuseria, 
 M. A. Robb, J. R. Cheeseman, G. Scalmani, V. Barone, B. Mennucci, 
 G. A. Petersson, H. Nakatsuji, M. Caricato, X. Li, H. P. Hratchian, 
 A. F. Izmaylov, J. Bloino, G. Zheng, J. L. Sonnenberg, M. Hada, 
 M. Ehara, K. Toyota, R. Fukuda, J. Hasegawa, M. Ishida, T. Nakajima, 
 Y. Honda, O. Kitao, H. Nakai, T. Vreven, J. A. Montgomery, Jr., 
 J. E. Peralta, F. Ogliaro, M. Bearpark, J. J. Heyd, E. Brothers, 
 K. N. Kudin, V. N. Staroverov, T. Keith, R. Kobayashi, J. Normand, 
 K. Raghavachari, A. Rendell, J. C. Burant, S. S. Iyengar, J. Tomasi, 
 M. Cossi, N. Rega, J. M. Millam, M. Klene, J. E. Knox, J. B. Cross, 
 V. Bakken, C. Adamo, J. Jaramillo, R. Gomperts, R. E. Stratmann, 
 O. Yazyev, A. J. Austin, R. Cammi, C. Pomelli, J. W. Ochterski, 
 R. L. Martin, K. Morokuma, V. G. Zakrzewski, G. A. Voth, 
 P. Salvador, J. J. Dannenberg, S. Dapprich, A. D. Daniels, 
 O. Farkas, J. B. Foresman, J. V. Ortiz, J. Cioslowski, 
 and D. J. Fox, Gaussian, Inc., Wallingford CT, 2010.
 
 ******************************************
 Gaussian 09:  AM64L-G09RevB.01 12-Aug-2010
                24-Jan-2019 
 ******************************************
 ------------------------------------------------------------------
 #p hf/sto-3g scf=verytight opt=(ts,noeigentest,calcfc) NoSymm freq
 ------------------------------------------------------------------
 1/5=1,10=4,11=1,18=20,38=1/1,3;
 2/9=110,12=2,15=1,17=6,18=5,40=1/2;
 3/6=3,11=9,16=1,25=1,30=1,71=2/1,2,3;
 4//1;
 5/5=2,17=3,38=5/2;
 8/6=4,10=90,11=11/1;
 11/6=1,8=1,9=11,15=111,16=1,31=1/1,2,10;
 10/6=1,7=6,13=1,31=1/2;
 6/7=2,8=2,9=2,10=2,28=1/1;
 7/10=1,18=20,25=1,30=1/1,2,3,16;
 1/5=1,10=4,11=1,18=20/3(2);
 2/9=110,15=1/2;
 99//99;
 2/9=110,15=1/2;
 3/6=3,11=9,16=1,25=1,30=1,71=1/1,2,3;
 4/5=5,16=3/1;
 5/5=2,17=3,38=5/2;
 7/30=1/1,2,3,16;
 1/5=1,11=1,18=20/3(-5);
 2/9=110,15=1/2;
 6/7=2,8=2,9=2,10=2,19=2,28=1/1;
 99/9=1/99;
 Leave Link    1 at Thu Jan 24 17:57:00 2019, MaxMem=          0 cpu:       0.0
 (Enter /home/programs/G09_64/g09/l101.exe)
 --
 --
 --
 Symbolic Z-matrix:
 Charge =  0 Multiplicity = 2
 c                     1.00206  -0.67441   0. 
 c                     0.11614   0.52311   0. 
 o                    -1.23015   0.0739    0. 
 h                     2.30018  -0.15037  0. 
 h                     0.98981  -1.26614   0.90529 
 h                     0.9898   -1.26615  -0.90529 
 h                     0.31512   1.13346   0.88235 
 h                     0.31512   1.13346  -0.88235 
 h                    -1.81016   0.83515   0.00001 
 h                     3.10934   0.20936  -0.00001 
 
 NAtoms=     10 NQM=     10 NQMF=      0 NMic=      0 NMicF=      0 NTot=     10.
                    Isotopes and Nuclear Properties:
 (Nuclear quadrupole moments (NQMom) in fm**2, nuclear magnetic moments (NMagM)
  in nuclear magnetons)

  Atom         1           2           3           4           5           6           7           8           9          10
 IAtWgt=          12          12          16           1           1           1           1           1           1           1
 AtmWgt=  12.0000000  12.0000000  15.9949146   1.0078250   1.0078250   1.0078250   1.0078250   1.0078250   1.0078250   1.0078250
 NucSpn=           0           0           0           1           1           1           1           1           1           1
 AtZEff=   0.0000000   0.0000000   0.0000000   0.0000000   0.0000000   0.0000000   0.0000000   0.0000000   0.0000000   0.0000000
 NQMom=    0.0000000   0.0000000   0.0000000   0.0000000   0.0000000   0.0000000   0.0000000   0.0000000   0.0000000   0.0000000
 NMagM=    0.0000000   0.0000000   0.0000000   2.7928460   2.7928460   2.7928460   2.7928460   2.7928460   2.7928460   2.7928460
 Leave Link  101 at Thu Jan 24 17:57:00 2019, MaxMem=   33554432 cpu:       0.1
 (Enter /home/programs/G09_64/g09/l103.exe)

 GradGradGradGradGradGradGradGradGradGradGradGradGradGradGradGradGradGrad
 Berny optimization.
 Initialization pass.
                           ----------------------------
                           !    Initial Parameters    !
                           ! (Angstroms and Degrees)  !
 --------------------------                            --------------------------
 ! Name  Definition              Value          Derivative Info.                !
 --------------------------------------------------------------------------------
 ! R1    R(1,2)                  1.4896         calculate D2E/DX2 analytically  !
 ! R2    R(1,4)                  1.3999         calculate D2E/DX2 analytically  !
 ! R3    R(1,5)                  1.0816         calculate D2E/DX2 analytically  !
 ! R4    R(1,6)                  1.0816         calculate D2E/DX2 analytically  !
 ! R5    R(2,3)                  1.4193         calculate D2E/DX2 analytically  !
 ! R6    R(2,7)                  1.0912         calculate D2E/DX2 analytically  !
 ! R7    R(2,8)                  1.0912         calculate D2E/DX2 analytically  !
 ! R8    R(3,9)                  0.957          calculate D2E/DX2 analytically  !
 ! R9    R(4,10)                 0.8855         calculate D2E/DX2 analytically  !
 ! A1    A(2,1,4)              104.5101         calculate D2E/DX2 analytically  !
 ! A2    A(2,1,5)              115.6634         calculate D2E/DX2 analytically  !
 ! A3    A(2,1,6)              115.6633         calculate D2E/DX2 analytically  !
 ! A4    A(4,1,5)              102.433          calculate D2E/DX2 analytically  !
 ! A5    A(4,1,6)              102.4333         calculate D2E/DX2 analytically  !
 ! A6    A(5,1,6)              113.6486         calculate D2E/DX2 analytically  !
 ! A7    A(1,2,3)              108.0414         calculate D2E/DX2 analytically  !
 ! A8    A(1,2,7)              109.9514         calculate D2E/DX2 analytically  !
 ! A9    A(1,2,8)              109.9513         calculate D2E/DX2 analytically  !
 ! A10   A(3,2,7)              110.4887         calculate D2E/DX2 analytically  !
 ! A11   A(3,2,8)              110.4887         calculate D2E/DX2 analytically  !
 ! A12   A(7,2,8)              107.9234         calculate D2E/DX2 analytically  !
 ! A13   A(2,3,9)              108.8523         calculate D2E/DX2 analytically  !
 ! A14   L(1,4,10,2,-1)        178.0149         calculate D2E/DX2 analytically  !
 ! A15   L(1,4,10,2,-2)        179.9999         calculate D2E/DX2 analytically  !
 ! D1    D(4,1,2,3)            179.9998         calculate D2E/DX2 analytically  !
 ! D2    D(4,1,2,7)            -59.3453         calculate D2E/DX2 analytically  !
 ! D3    D(4,1,2,8)             59.3449         calculate D2E/DX2 analytically  !
 ! D4    D(5,1,2,3)            -68.2178         calculate D2E/DX2 analytically  !
 ! D5    D(5,1,2,7)             52.4371         calculate D2E/DX2 analytically  !
 ! D6    D(5,1,2,8)            171.1273         calculate D2E/DX2 analytically  !
 ! D7    D(6,1,2,3)             68.2172         calculate D2E/DX2 analytically  !
 ! D8    D(6,1,2,7)           -171.1279         calculate D2E/DX2 analytically  !
 ! D9    D(6,1,2,8)            -52.4377         calculate D2E/DX2 analytically  !
 ! D10   D(1,2,3,9)            179.9997         calculate D2E/DX2 analytically  !
 ! D11   D(7,2,3,9)             59.681          calculate D2E/DX2 analytically  !
 ! D12   D(8,2,3,9)            -59.6816         calculate D2E/DX2 analytically  !
 --------------------------------------------------------------------------------
 Trust Radius=3.00D-01 FncErr=1.00D-07 GrdErr=1.00D-07
 Number of steps in this run=     46 maximum allowed number of steps=    100.
 Search for a saddle point of order  1.
 GradGradGradGradGradGradGradGradGradGradGradGradGradGradGradGradGradGrad

 Leave Link  103 at Thu Jan 24 17:57:00 2019, MaxMem=   33554432 cpu:       0.0
 (Enter /home/programs/G09_64/g09/l202.exe)
                          Input orientation:                          
 ---------------------------------------------------------------------
 Center     Atomic      Atomic             Coordinates (Angstroms)
 Number     Number       Type             X           Y           Z
 ---------------------------------------------------------------------
      1          6           0        1.002057   -0.674414    0.000000
      2          6           0        0.116137    0.523111    0.000001
      3          8           0       -1.230148    0.073896    0.000000
      4          1           0        2.300178   -0.150370   -0.000004
      5          1           0        0.989813   -1.266142    0.905290
      6          1           0        0.989804   -1.266145   -0.905288
      7          1           0        0.315116    1.133459    0.882348
      8          1           0        0.315118    1.133459   -0.882345
      9          1           0       -1.810161    0.835146    0.000005
     10          1           0        3.109338    0.209363   -0.000006
 ---------------------------------------------------------------------
                    Distance matrix (angstroms):
                    1          2          3          4          5
     1  C    0.000000
     2  C    1.489604   0.000000
     3  O    2.354295   1.419252   0.000000
     4  H    1.399907   2.285522   3.537442   0.000000
     5  H    1.081592   2.187301   2.746539   1.944624   0.000000
     6  H    1.081592   2.187300   2.746533   1.944627   1.810578
     7  H    2.125754   1.091171   2.071003   2.523338   2.492755
     8  H    2.125752   1.091170   2.071003   2.523332   3.067399
     9  H    3.191762   1.951407   0.957035   4.226834   3.615910
    10  H    2.285103   3.009600   4.341600   0.885521   2.736615
                    6          7          8          9         10
     6  H    0.000000
     7  H    3.067400   0.000000
     8  H    2.492755   1.764693   0.000000
     9  H    3.615907   2.320414   2.320419   0.000000
    10  H    2.736619   3.072487   3.072481   4.959141   0.000000
 Symmetry turned off by external request.
 Stoichiometry    C2H7O(2)
 Framework group  C1[X(C2H7O)]
 Deg. of freedom    24
 Full point group                 C1      NOp   1
 Rotational constants (GHZ):     32.6143400      7.9793917      6.9814546
 Leave Link  202 at Thu Jan 24 17:57:00 2019, MaxMem=   33554432 cpu:       0.0
 (Enter /home/programs/G09_64/g09/l301.exe)
 Standard basis: STO-3G (5D, 7F)
 Ernie: Thresh=  0.10000D-02 Tol=  0.10000D-05 Strict=F.
 Integral buffers will be    131072 words long.
 Raffenetti 2 integral format.
 Two-electron integral symmetry is turned off.
    22 basis functions,    66 primitive gaussians,    22 cartesian basis functions
    14 alpha electrons       13 beta electrons
       nuclear repulsion energy        86.1808045699 Hartrees.
 IExCor=    0 DFT=F Ex=HF Corr=None ExCW=0 ScaHFX=  1.000000
 ScaDFX=  1.000000  1.000000  1.000000  1.000000 ScalE2=  1.000000  1.000000
 IRadAn=      0 IRanWt=     -1 IRanGd=            0 ICorTp=0
 NAtoms=   10 NActive=   10 NUniq=   10 SFac= 1.00D+00 NAtFMM=   50 NAOKFM=F Big=F
 Leave Link  301 at Thu Jan 24 17:57:00 2019, MaxMem=   33554432 cpu:       0.1
 (Enter /home/programs/G09_64/g09/l302.exe)
 NPDir=0 NMtPBC=     1 NCelOv=     1 NCel=       1 NClECP=     1 NCelD=      1
         NCelK=      1 NCelE2=     1 NClLst=     1 CellRange=     0.0.
 One-electron integrals computed using PRISM.
 NBasis=    22 RedAO= T  NBF=    22
 NBsUse=    22 1.00D-06 NBFU=    22
 Leave Link  302 at Thu Jan 24 17:57:00 2019, MaxMem=   33554432 cpu:       0.2
 (Enter /home/programs/G09_64/g09/l303.exe)
 DipDrv:  MaxL=1.
 Leave Link  303 at Thu Jan 24 17:57:00 2019, MaxMem=   33554432 cpu:       0.0
 (Enter /home/programs/G09_64/g09/l401.exe)
 Harris functional with IExCor=  205 diagonalized for initial guess.
 ExpMin= 1.69D-01 ExpMax= 1.31D+02 ExpMxC= 1.31D+02 IAcc=1 IRadAn=         1 AccDes= 0.00D+00
 HarFok:  IExCor=  205 AccDes= 0.00D+00 IRadAn=         1 IDoV= 1
 ScaDFX=  1.000000  1.000000  1.000000  1.000000
 FoFCou: FMM=F IPFlag=           0 FMFlag=      100000 FMFlg1=           0
         NFxFlg=           0 DoJE=T BraDBF=F KetDBF=T FulRan=T
         Omega=  0.000000  0.000000  1.000000  0.000000  0.000000 ICntrl=     500 IOpCl=  0
         NMat0=    1 NMatS0=    1 NMatT0=    0 NMatD0=    1 NMtDS0=    0 NMtDT0=    0
         I1Cent=           4 NGrid=           0.
 Symmetry not used in FoFCou.
 Harris En= -152.781397777784    
 Initial guess <Sx>= 0.0000 <Sy>= 0.0000 <Sz>= 0.5000 <S**2>= 0.7500 S= 0.5000
 Leave Link  401 at Thu Jan 24 17:57:01 2019, MaxMem=   33554432 cpu:       0.3
 (Enter /home/programs/G09_64/g09/l502.exe)
 UHF open shell SCF:
 Requested convergence on RMS density matrix=1.00D-08 within 128 cycles.
 Requested convergence on MAX density matrix=1.00D-06.
 Requested convergence on             energy=1.00D-06.
 No special actions if energy rises.
 Using DIIS extrapolation, IDIIS=  1040.
 Two-electron integral symmetry not used.
 Keep R1 and R2 ints in memory in canonical form, NReq=884165.
 IEnd=       19882 IEndB=       19882 NGot=    33554432 MDV=    33487407
 LenX=    33487407 LenY=    33486482
 Symmetry not used in FoFDir.
 MinBra= 0 MaxBra= 1 Meth= 1.
 IRaf=       0 NMat=   1 IRICut=       1 DoRegI=T DoRafI=F ISym2E= 0 JSym2E=0.

 Cycle   1  Pass 1  IDiag  1:
 E= -152.464649718283    
 DIIS: error= 4.63D-02 at cycle   1 NSaved=   1.
 NSaved= 1 IEnMin= 1 EnMin= -152.464649718283     IErMin= 1 ErrMin= 4.63D-02
 ErrMax= 4.63D-02 EMaxC= 1.00D-01 BMatC= 3.06D-01 BMatP= 3.06D-01
 IDIUse=3 WtCom= 5.37D-01 WtEn= 4.63D-01
 Coeff-Com:  0.100D+01
 Coeff-En:   0.100D+01
 Coeff:      0.100D+01
 Gap=     0.912 Goal=   None    Shift=    0.000
 Gap=     0.516 Goal=   None    Shift=    0.000
 GapD=    0.516 DampG=2.000 DampE=0.500 DampFc=1.0000 IDamp=-1.
 RMSDP=1.79D-02 MaxDP=1.29D-01              OVMax= 0.00D+00

 Cycle   2  Pass 1  IDiag  1:
 E= -152.554077951558     Delta-E=       -0.089428233275 Rises=F Damp=F
 DIIS: error= 1.15D-02 at cycle   2 NSaved=   2.
 NSaved= 2 IEnMin= 2 EnMin= -152.554077951558     IErMin= 2 ErrMin= 1.15D-02
 ErrMax= 1.15D-02 EMaxC= 1.00D-01 BMatC= 1.44D-02 BMatP= 3.06D-01
 IDIUse=3 WtCom= 8.85D-01 WtEn= 1.15D-01
 Coeff-Com:  0.677D-01 0.932D+00
 Coeff-En:   0.000D+00 0.100D+01
 Coeff:      0.599D-01 0.940D+00
 Gap=     0.883 Goal=   None    Shift=    0.000
 Gap=     0.574 Goal=   None    Shift=    0.000
 RMSDP=4.43D-03 MaxDP=4.13D-02 DE=-8.94D-02 OVMax= 0.00D+00

 Cycle   3  Pass 1  IDiag  1:
 E= -152.559951961676     Delta-E=       -0.005874010117 Rises=F Damp=F
 DIIS: error= 5.40D-03 at cycle   3 NSaved=   3.
 NSaved= 3 IEnMin= 3 EnMin= -152.559951961676     IErMin= 3 ErrMin= 5.40D-03
 ErrMax= 5.40D-03 EMaxC= 1.00D-01 BMatC= 2.01D-03 BMatP= 1.44D-02
 IDIUse=3 WtCom= 9.46D-01 WtEn= 5.40D-02
 Coeff-Com: -0.394D-01-0.147D+00 0.119D+01
 Coeff-En:   0.000D+00 0.000D+00 0.100D+01
 Coeff:     -0.373D-01-0.139D+00 0.118D+01
 Gap=     0.873 Goal=   None    Shift=    0.000
 Gap=     0.589 Goal=   None    Shift=    0.000
 RMSDP=1.85D-03 MaxDP=2.55D-02 DE=-5.87D-03 OVMax= 0.00D+00

 Cycle   4  Pass 1  IDiag  1:
 E= -152.561230707838     Delta-E=       -0.001278746162 Rises=F Damp=F
 DIIS: error= 2.10D-03 at cycle   4 NSaved=   4.
 NSaved= 4 IEnMin= 4 EnMin= -152.561230707838     IErMin= 4 ErrMin= 2.10D-03
 ErrMax= 2.10D-03 EMaxC= 1.00D-01 BMatC= 3.58D-04 BMatP= 2.01D-03
 IDIUse=3 WtCom= 9.79D-01 WtEn= 2.10D-02
 Coeff-Com:  0.549D-02-0.557D-01-0.483D+00 0.153D+01
 Coeff-En:   0.000D+00 0.000D+00 0.000D+00 0.100D+01
 Coeff:      0.538D-02-0.546D-01-0.473D+00 0.152D+01
 Gap=     0.882 Goal=   None    Shift=    0.000
 Gap=     0.591 Goal=   None    Shift=    0.000
 RMSDP=1.22D-03 MaxDP=1.62D-02 DE=-1.28D-03 OVMax= 0.00D+00

 Cycle   5  Pass 1  IDiag  1:
 E= -152.561516962005     Delta-E=       -0.000286254167 Rises=F Damp=F
 DIIS: error= 5.18D-04 at cycle   5 NSaved=   5.
 NSaved= 5 IEnMin= 5 EnMin= -152.561516962005     IErMin= 5 ErrMin= 5.18D-04
 ErrMax= 5.18D-04 EMaxC= 1.00D-01 BMatC= 2.72D-05 BMatP= 3.58D-04
 IDIUse=3 WtCom= 9.95D-01 WtEn= 5.18D-03
 Coeff-Com:  0.727D-03 0.269D-01 0.681D-01-0.454D+00 0.136D+01
 Coeff-En:   0.000D+00 0.000D+00 0.000D+00 0.000D+00 0.100D+01
 Coeff:      0.723D-03 0.267D-01 0.678D-01-0.452D+00 0.136D+01
 Gap=     0.882 Goal=   None    Shift=    0.000
 Gap=     0.593 Goal=   None    Shift=    0.000
 RMSDP=3.05D-04 MaxDP=2.63D-03 DE=-2.86D-04 OVMax= 0.00D+00

 Cycle   6  Pass 1  IDiag  1:
 E= -152.561540016169     Delta-E=       -0.000023054164 Rises=F Damp=F
 DIIS: error= 2.38D-04 at cycle   6 NSaved=   6.
 NSaved= 6 IEnMin= 6 EnMin= -152.561540016169     IErMin= 6 ErrMin= 2.38D-04
 ErrMax= 2.38D-04 EMaxC= 1.00D-01 BMatC= 5.79D-06 BMatP= 2.72D-05
 IDIUse=3 WtCom= 9.98D-01 WtEn= 2.38D-03
 Coeff-Com: -0.134D-02-0.420D-02 0.458D-01-0.273D-01-0.746D+00 0.173D+01
 Coeff-En:   0.000D+00 0.000D+00 0.000D+00 0.000D+00 0.000D+00 0.100D+01
 Coeff:     -0.134D-02-0.419D-02 0.457D-01-0.272D-01-0.744D+00 0.173D+01
 Gap=     0.882 Goal=   None    Shift=    0.000
 Gap=     0.592 Goal=   None    Shift=    0.000
 RMSDP=2.06D-04 MaxDP=1.68D-03 DE=-2.31D-05 OVMax= 0.00D+00

 Cycle   7  Pass 1  IDiag  1:
 E= -152.561546127519     Delta-E=       -0.000006111349 Rises=F Damp=F
 DIIS: error= 6.24D-05 at cycle   7 NSaved=   7.
 NSaved= 7 IEnMin= 7 EnMin= -152.561546127519     IErMin= 7 ErrMin= 6.24D-05
 ErrMax= 6.24D-05 EMaxC= 1.00D-01 BMatC= 4.32D-07 BMatP= 5.79D-06
 IDIUse=1 WtCom= 1.00D+00 WtEn= 0.00D+00
 Coeff-Com:  0.523D-03-0.105D-02-0.300D-01 0.654D-01 0.197D+00-0.810D+00
 Coeff-Com:  0.158D+01
 Coeff:      0.523D-03-0.105D-02-0.300D-01 0.654D-01 0.197D+00-0.810D+00
 Coeff:      0.158D+01
 Gap=     0.882 Goal=   None    Shift=    0.000
 Gap=     0.592 Goal=   None    Shift=    0.000
 RMSDP=5.65D-05 MaxDP=3.80D-04 DE=-6.11D-06 OVMax= 0.00D+00

 Cycle   8  Pass 1  IDiag  1:
 E= -152.561546556025     Delta-E=       -0.000000428507 Rises=F Damp=F
 DIIS: error= 2.09D-05 at cycle   8 NSaved=   8.
 NSaved= 8 IEnMin= 8 EnMin= -152.561546556025     IErMin= 8 ErrMin= 2.09D-05
 ErrMax= 2.09D-05 EMaxC= 1.00D-01 BMatC= 4.26D-08 BMatP= 4.32D-07
 IDIUse=1 WtCom= 1.00D+00 WtEn= 0.00D+00
 Coeff-Com: -0.199D-03 0.747D-03 0.141D-01-0.338D-01-0.659D-01 0.343D+00
 Coeff-Com: -0.848D+00 0.159D+01
 Coeff:     -0.199D-03 0.747D-03 0.141D-01-0.338D-01-0.659D-01 0.343D+00
 Coeff:     -0.848D+00 0.159D+01
 Gap=     0.882 Goal=   None    Shift=    0.000
 Gap=     0.592 Goal=   None    Shift=    0.000
 RMSDP=1.41D-05 MaxDP=9.54D-05 DE=-4.29D-07 OVMax= 0.00D+00

 Cycle   9  Pass 1  IDiag  1:
 E= -152.561546600415     Delta-E=       -0.000000044390 Rises=F Damp=F
 DIIS: error= 1.11D-05 at cycle   9 NSaved=   9.
 NSaved= 9 IEnMin= 9 EnMin= -152.561546600415     IErMin= 9 ErrMin= 1.11D-05
 ErrMax= 1.11D-05 EMaxC= 1.00D-01 BMatC= 9.90D-09 BMatP= 4.26D-08
 IDIUse=1 WtCom= 1.00D+00 WtEn= 0.00D+00
 Coeff-Com: -0.135D-03 0.136D-03 0.719D-02-0.149D-01-0.518D-01 0.198D+00
 Coeff-Com: -0.349D+00-0.340D+00 0.155D+01
 Coeff:     -0.135D-03 0.136D-03 0.719D-02-0.149D-01-0.518D-01 0.198D+00
 Coeff:     -0.349D+00-0.340D+00 0.155D+01
 Gap=     0.882 Goal=   None    Shift=    0.000
 Gap=     0.592 Goal=   None    Shift=    0.000
 RMSDP=1.05D-05 MaxDP=7.45D-05 DE=-4.44D-08 OVMax= 0.00D+00

 Cycle  10  Pass 1  IDiag  1:
 E= -152.561546613139     Delta-E=       -0.000000012724 Rises=F Damp=F
 DIIS: error= 2.99D-06 at cycle  10 NSaved=  10.
 NSaved=10 IEnMin=10 EnMin= -152.561546613139     IErMin=10 ErrMin= 2.99D-06
 ErrMax= 2.99D-06 EMaxC= 1.00D-01 BMatC= 4.67D-10 BMatP= 9.90D-09
 IDIUse=1 WtCom= 1.00D+00 WtEn= 0.00D+00
 Coeff-Com:  0.527D-04-0.939D-04-0.309D-02 0.660D-02 0.197D-01-0.818D-01
 Coeff-Com:  0.164D+00-0.502D-01-0.423D+00 0.137D+01
 Coeff:      0.527D-04-0.939D-04-0.309D-02 0.660D-02 0.197D-01-0.818D-01
 Coeff:      0.164D+00-0.502D-01-0.423D+00 0.137D+01
 Gap=     0.882 Goal=   None    Shift=    0.000
 Gap=     0.592 Goal=   None    Shift=    0.000
 RMSDP=2.05D-06 MaxDP=1.66D-05 DE=-1.27D-08 OVMax= 0.00D+00

 Cycle  11  Pass 1  IDiag  1:
 E= -152.561546613643     Delta-E=       -0.000000000504 Rises=F Damp=F
 DIIS: error= 6.68D-07 at cycle  11 NSaved=  11.
 NSaved=11 IEnMin=11 EnMin= -152.561546613643     IErMin=11 ErrMin= 6.68D-07
 ErrMax= 6.68D-07 EMaxC= 1.00D-01 BMatC= 4.99D-11 BMatP= 4.67D-10
 IDIUse=1 WtCom= 1.00D+00 WtEn= 0.00D+00
 Coeff-Com: -0.342D-04 0.635D-04 0.204D-02-0.430D-02-0.129D-01 0.537D-01
 Coeff-Com: -0.111D+00 0.590D-01 0.257D+00-0.111D+01 0.186D+01
 Coeff:     -0.342D-04 0.635D-04 0.204D-02-0.430D-02-0.129D-01 0.537D-01
 Coeff:     -0.111D+00 0.590D-01 0.257D+00-0.111D+01 0.186D+01
 Gap=     0.882 Goal=   None    Shift=    0.000
 Gap=     0.592 Goal=   None    Shift=    0.000
 RMSDP=5.78D-07 MaxDP=3.92D-06 DE=-5.04D-10 OVMax= 0.00D+00

 Cycle  12  Pass 1  IDiag  1:
 E= -152.561546613693     Delta-E=       -0.000000000051 Rises=F Damp=F
 DIIS: error= 2.08D-07 at cycle  12 NSaved=  12.
 NSaved=12 IEnMin=12 EnMin= -152.561546613693     IErMin=12 ErrMin= 2.08D-07
 ErrMax= 2.08D-07 EMaxC= 1.00D-01 BMatC= 4.24D-12 BMatP= 4.99D-11
 IDIUse=1 WtCom= 1.00D+00 WtEn= 0.00D+00
 Coeff-Com:  0.967D-05-0.168D-04-0.602D-03 0.122D-02 0.371D-02-0.154D-01
 Coeff-Com:  0.329D-01-0.217D-01-0.732D-01 0.354D+00-0.852D+00 0.157D+01
 Coeff:      0.967D-05-0.168D-04-0.602D-03 0.122D-02 0.371D-02-0.154D-01
 Coeff:      0.329D-01-0.217D-01-0.732D-01 0.354D+00-0.852D+00 0.157D+01
 Gap=     0.882 Goal=   None    Shift=    0.000
 Gap=     0.592 Goal=   None    Shift=    0.000
 RMSDP=1.92D-07 MaxDP=1.34D-06 DE=-5.09D-11 OVMax= 0.00D+00

 Cycle  13  Pass 1  IDiag  1:
 E= -152.561546613698     Delta-E=       -0.000000000004 Rises=F Damp=F
 DIIS: error= 4.91D-08 at cycle  13 NSaved=  13.
 NSaved=13 IEnMin=13 EnMin= -152.561546613698     IErMin=13 ErrMin= 4.91D-08
 ErrMax= 4.91D-08 EMaxC= 1.00D-01 BMatC= 3.33D-13 BMatP= 4.24D-12
 IDIUse=1 WtCom= 1.00D+00 WtEn= 0.00D+00
 Coeff-Com: -0.291D-05 0.470D-05 0.190D-03-0.357D-03-0.115D-02 0.471D-02
 Coeff-Com: -0.104D-01 0.818D-02 0.239D-01-0.125D+00 0.371D+00-0.950D+00
 Coeff-Com:  0.168D+01
 Coeff:     -0.291D-05 0.470D-05 0.190D-03-0.357D-03-0.115D-02 0.471D-02
 Coeff:     -0.104D-01 0.818D-02 0.239D-01-0.125D+00 0.371D+00-0.950D+00
 Coeff:      0.168D+01
 Gap=     0.882 Goal=   None    Shift=    0.000
 Gap=     0.592 Goal=   None    Shift=    0.000
 RMSDP=4.93D-08 MaxDP=3.56D-07 DE=-4.15D-12 OVMax= 0.00D+00

 Cycle  14  Pass 1  IDiag  1:
 E= -152.561546613698     Delta-E=       -0.000000000001 Rises=F Damp=F
 DIIS: error= 1.72D-08 at cycle  14 NSaved=  14.
 NSaved=14 IEnMin=14 EnMin= -152.561546613698     IErMin=14 ErrMin= 1.72D-08
 ErrMax= 1.72D-08 EMaxC= 1.00D-01 BMatC= 3.76D-14 BMatP= 3.33D-13
 IDIUse=1 WtCom= 1.00D+00 WtEn= 0.00D+00
 Coeff-Com:  0.113D-05-0.173D-05-0.780D-04 0.138D-03 0.458D-03-0.186D-02
 Coeff-Com:  0.428D-02-0.365D-02-0.103D-01 0.537D-01-0.169D+00 0.480D+00
 Coeff-Com: -0.111D+01 0.176D+01
 Coeff:      0.113D-05-0.173D-05-0.780D-04 0.138D-03 0.458D-03-0.186D-02
 Coeff:      0.428D-02-0.365D-02-0.103D-01 0.537D-01-0.169D+00 0.480D+00
 Coeff:     -0.111D+01 0.176D+01
 Gap=     0.882 Goal=   None    Shift=    0.000
 Gap=     0.592 Goal=   None    Shift=    0.000
 RMSDP=1.70D-08 MaxDP=1.34D-07 DE=-5.68D-13 OVMax= 0.00D+00

 Cycle  15  Pass 1  IDiag  1:
 E= -152.561546613698     Delta-E=        0.000000000000 Rises=F Damp=F
 DIIS: error= 4.04D-09 at cycle  15 NSaved=  15.
 NSaved=15 IEnMin=15 EnMin= -152.561546613698     IErMin=15 ErrMin= 4.04D-09
 ErrMax= 4.04D-09 EMaxC= 1.00D-01 BMatC= 2.11D-15 BMatP= 3.76D-14
 IDIUse=1 WtCom= 1.00D+00 WtEn= 0.00D+00
 Coeff-Com: -0.615D-07 0.386D-07 0.616D-05-0.574D-05-0.310D-04 0.114D-03
 Coeff-Com: -0.350D-03 0.499D-03 0.102D-02-0.593D-02 0.246D-01-0.909D-01
 Coeff-Com:  0.262D+00-0.622D+00 0.143D+01
 Coeff:     -0.615D-07 0.386D-07 0.616D-05-0.574D-05-0.310D-04 0.114D-03
 Coeff:     -0.350D-03 0.499D-03 0.102D-02-0.593D-02 0.246D-01-0.909D-01
 Coeff:      0.262D+00-0.622D+00 0.143D+01
 Gap=     0.882 Goal=   None    Shift=    0.000
 Gap=     0.592 Goal=   None    Shift=    0.000
 RMSDP=3.96D-09 MaxDP=3.20D-08 DE=-1.14D-13 OVMax= 0.00D+00

 SCF Done:  E(UHF) =  -152.561546614     A.U. after   15 cycles
             Convg  =    0.3964D-08             -V/T =  2.0056
 <Sx>= 0.0000 <Sy>= 0.0000 <Sz>= 0.5000 <S**2>= 0.7894 S= 0.5195
 <L.S>= 0.000000000000E+00
 KE= 1.517147094517D+02 PE=-5.309267655744D+02 EE= 1.404697049391D+02
 Annihilation of the first spin contaminant:
 S**2 before annihilation     0.7894,   after     0.7505
 Leave Link  502 at Thu Jan 24 17:57:01 2019, MaxMem=   33554432 cpu:       0.1
 (Enter /home/programs/G09_64/g09/l801.exe)
 Range of M.O.s used for correlation:     1    22
 NBasis=    22 NAE=    14 NBE=    13 NFC=     0 NFV=     0
 NROrb=     22 NOA=    14 NOB=    13 NVA=     8 NVB=     9
 Leave Link  801 at Thu Jan 24 17:57:01 2019, MaxMem=   33554432 cpu:       0.0
 (Enter /home/programs/G09_64/g09/l1101.exe)
 Using compressed storage, NAtomX=    10.
 Will process  11 centers per pass.
 Leave Link 1101 at Thu Jan 24 17:57:01 2019, MaxMem=   33554432 cpu:       0.1
 (Enter /home/programs/G09_64/g09/l1102.exe)
 Symmetrizing basis deriv contribution to polar:
 IMax=3 JMax=2 DiffMx= 0.00D+00
 Leave Link 1102 at Thu Jan 24 17:57:01 2019, MaxMem=   33554432 cpu:       0.0
 (Enter /home/programs/G09_64/g09/l1110.exe)
 Forming Gx(P) for the SCF density, NAtomX=    10.
 Integral derivatives from FoFDir/FoFCou, PRISM(SPDF).
 Do as many integral derivatives as possible in FoFDir.
 G2DrvN: MDV=      33554248.
 G2DrvN: will do    11 centers at a time, making    1 passes doing MaxLOS=1.
 Calling FoFCou, ICntrl=  3107 FMM=F I1Cent=   0 AccDes= 0.00D+00.
 FoFCou: FMM=F IPFlag=           0 FMFlag=      100000 FMFlg1=           0
         NFxFlg=           0 DoJE=F BraDBF=F KetDBF=F FulRan=T
         Omega=  0.000000  0.000000  1.000000  0.000000  0.000000 ICntrl=    3107 IOpCl=  1
         NMat0=    1 NMatS0=    1 NMatT0=    0 NMatD0=    1 NMtDS0=    0 NMtDT0=    0
         I1Cent=           0 NGrid=           0.
 Symmetry not used in FoFCou.
 FoFDir/FoFCou used for L=0 through L=1.
 End of G2Drv Frequency-dependent properties file   721 does not exist.
 End of G2Drv Frequency-dependent properties file   722 does not exist.
 Leave Link 1110 at Thu Jan 24 17:57:01 2019, MaxMem=   33554432 cpu:       0.2
 (Enter /home/programs/G09_64/g09/l1002.exe)
 Minotr:  UHF open shell wavefunction.
          IDoAtm=1111111111
          Direct CPHF calculation.
          Differentiating once with respect to nuclear coordinates.
          Requested convergence is 1.0D-06 RMS, and 1.0D-05 maximum.
          Secondary convergence is 1.0D-12 RMS, and 1.0D-12 maximum.
          NewPWx=T KeepS1=F KeepF1=F KeepIn=T MapXYZ=F SortEE=F KeepMc=T.
          MDV=      33554328 using IRadAn=       2.
          Keep R1 and R2 ints in memory in canonical form, NReq=864982.
 Symmetry not used in FoFDir.
 MinBra= 0 MaxBra= 1 Meth= 1.
 IRaf=       0 NMat=   1 IRICut=       1 DoRegI=T DoRafI=F ISym2E= 0 JSym2E=0.
          Solving linear equations simultaneously, MaxMat=       0.
          There are    33 degrees of freedom in the 1st order CPHF.  IDoFFX=5.
     27 vectors produced by pass  0 Test12= 6.94D-12 3.03D-07 XBig12= 6.83D-02 1.68D-01.
 AX will form    27 AO Fock derivatives at one time.
     27 vectors produced by pass  1 Test12= 6.94D-12 3.03D-07 XBig12= 9.29D-04 8.03D-03.
     27 vectors produced by pass  2 Test12= 6.94D-12 3.03D-07 XBig12= 9.07D-06 7.09D-04.
     27 vectors produced by pass  3 Test12= 6.94D-12 3.03D-07 XBig12= 8.86D-08 7.46D-05.
     11 vectors produced by pass  4 Test12= 6.94D-12 3.03D-07 XBig12= 6.55D-10 5.93D-06.
      2 vectors produced by pass  5 Test12= 6.94D-12 3.03D-07 XBig12= 2.61D-12 4.19D-07.
 Inverted reduced A of dimension   121 with in-core refinement.
 End of Minotr Frequency-dependent properties file   721 does not exist.
 End of Minotr Frequency-dependent properties file   722 does not exist.
 Leave Link 1002 at Thu Jan 24 17:57:01 2019, MaxMem=   33554432 cpu:       0.1
 (Enter /home/programs/G09_64/g09/l601.exe)
 Copying SCF densities to generalized density rwf, IOpCl= 1 IROHF=0.

 **********************************************************************

            Population analysis using the SCF density.

 **********************************************************************

 Alpha  occ. eigenvalues --  -20.25137 -11.09704 -11.04193  -1.29187  -0.99105
 Alpha  occ. eigenvalues --   -0.80307  -0.64766  -0.62067  -0.57144  -0.51812
 Alpha  occ. eigenvalues --   -0.50232  -0.41278  -0.35557  -0.30583
 Alpha virt. eigenvalues --    0.57639   0.63587   0.65477   0.70649   0.73871
 Alpha virt. eigenvalues --    0.75971   0.78890   0.80588
  Beta  occ. eigenvalues --  -20.25008 -11.09953 -11.01718  -1.28644  -0.94749
  Beta  occ. eigenvalues --   -0.77332  -0.61801  -0.61414  -0.51391  -0.49343
  Beta  occ. eigenvalues --   -0.48794  -0.40687  -0.35356
  Beta virt. eigenvalues --    0.23877   0.58795   0.64200   0.67670   0.72421
  Beta virt. eigenvalues --    0.75691   0.77844   0.82478   0.87199
          Condensed to atoms (all electrons):
              1          2          3          4          5          6
     1  C    4.966412   0.371899  -0.021074   0.115861   0.384937   0.384937
     2  C    0.371899   4.696296   0.266658  -0.009649  -0.021889  -0.021889
     3  O   -0.021074   0.266658   7.840735   0.000223  -0.000240  -0.000240
     4  H    0.115861  -0.009649   0.000223   0.625043  -0.009556  -0.009556
     5  H    0.384937  -0.021889  -0.000240  -0.009556   0.602481  -0.022278
     6  H    0.384937  -0.021889  -0.000240  -0.009556  -0.022278   0.602481
     7  H   -0.025161   0.377546  -0.016915  -0.001353  -0.002772   0.001881
     8  H   -0.025161   0.377546  -0.016915  -0.001354   0.001881  -0.002772
     9  H    0.002898  -0.040955   0.259896  -0.000031  -0.000010  -0.000010
    10  H   -0.039507  -0.001151  -0.000002   0.262529  -0.000817  -0.000817
              7          8          9         10
     1  C   -0.025161  -0.025161   0.002898  -0.039507
     2  C    0.377546   0.377546  -0.040955  -0.001151
     3  O   -0.016915  -0.016915   0.259896  -0.000002
     4  H   -0.001353  -0.001354  -0.000031   0.262529
     5  H   -0.002772   0.001881  -0.000010  -0.000817
     6  H    0.001881  -0.002772  -0.000010  -0.000817
     7  H    0.643231  -0.027270  -0.002953   0.000127
     8  H   -0.027270   0.643231  -0.002953   0.000127
     9  H   -0.002953  -0.002953   0.594786   0.000001
    10  H    0.000127   0.000127   0.000001   0.817912
 Mulliken atomic charges:
              1
     1  C   -0.116040
     2  C    0.005590
     3  O   -0.312127
     4  H    0.027843
     5  H    0.068262
     6  H    0.068262
     7  H    0.053640
     8  H    0.053640
     9  H    0.189331
    10  H   -0.038401
 Sum of Mulliken atomic charges =   0.00000
 Mulliken charges with hydrogens summed into heavy atoms:
              1
     1  C    0.009926
     2  C    0.112869
     3  O   -0.122795
 Sum of Mulliken charges with hydrogens summed into heavy atoms =   0.00000
          Atomic-Atomic Spin Densities.
              1          2          3          4          5          6
     1  C    0.993025  -0.011023  -0.005666   0.014041  -0.010961  -0.010961
     2  C   -0.011023  -0.093001   0.001371   0.002141   0.001032   0.001032
     3  O   -0.005666   0.001371   0.042251  -0.000021  -0.000177  -0.000177
     4  H    0.014041   0.002141  -0.000021  -0.254814   0.002576   0.002576
     5  H   -0.010961   0.001032  -0.000177   0.002576  -0.054038   0.001388
     6  H   -0.010961   0.001032  -0.000177   0.002576   0.001388  -0.054038
     7  H   -0.002770   0.002210  -0.000940   0.000075   0.000299   0.000058
     8  H   -0.002770   0.002210  -0.000940   0.000075   0.000058   0.000299
     9  H    0.000445   0.000406  -0.002385   0.000003   0.000020   0.000020
    10  H   -0.053554   0.000903  -0.000017  -0.011524   0.001265   0.001265
              7          8          9         10
     1  C   -0.002770  -0.002770   0.000445  -0.053554
     2  C    0.002210   0.002210   0.000406   0.000903
     3  O   -0.000940  -0.000940  -0.002385  -0.000017
     4  H    0.000075   0.000075   0.000003  -0.011524
     5  H    0.000299   0.000058   0.000020   0.001265
     6  H    0.000058   0.000299   0.000020   0.001265
     7  H    0.009444   0.000081   0.000333   0.000398
     8  H    0.000081   0.009444   0.000333   0.000398
     9  H    0.000333   0.000333   0.005580   0.000004
    10  H    0.000398   0.000398   0.000004   0.549291
 Mulliken atomic spin densities:
              1
     1  C    0.909805
     2  C   -0.092720
     3  O    0.033300
     4  H   -0.244872
     5  H   -0.058539
     6  H   -0.058539
     7  H    0.009188
     8  H    0.009188
     9  H    0.004760
    10  H    0.488428
 Sum of Mulliken atomic spin densities =   1.00000
 APT atomic charges:
              1
     1  C   -0.658768
     2  C   -0.490929
     3  O   -0.647738
     4  H   -0.321985
     5  H    0.338230
     6  H    0.338229
     7  H    0.309995
     8  H    0.309994
     9  H    0.478330
    10  H    0.344641
 Sum of APT charges=   0.00000
 APT Atomic charges with hydrogens summed into heavy atoms:
              1
     1  C    0.040347
     2  C    0.129060
     3  O   -0.169408
     4  H    0.000000
     5  H    0.000000
     6  H    0.000000
     7  H    0.000000
     8  H    0.000000
     9  H    0.000000
    10  H    0.000000
 Sum of APT charges=   0.00000
 Electronic spatial extent (au):  <R**2>=            231.7117
 Charge=              0.0000 electrons
 Dipole moment (field-independent basis, Debye):
    X=             -0.0995    Y=              1.2059    Z=              0.0000  Tot=              1.2100
 Quadrupole moment (field-independent basis, Debye-Ang):
   XX=            -20.7929   YY=            -18.2184   ZZ=            -19.2528
   XY=             -2.3638   XZ=              0.0000   YZ=              0.0000
 Traceless Quadrupole moment (field-independent basis, Debye-Ang):
   XX=             -1.3715   YY=              1.2030   ZZ=              0.1686
   XY=             -2.3638   XZ=              0.0000   YZ=              0.0000
 Octapole moment (field-independent basis, Debye-Ang**2):
  XXX=            -24.4554  YYY=              0.4286  ZZZ=              0.0000  XYY=             -6.8144
  XXY=              3.7749  XXZ=              0.0000  XZZ=             -4.8967  YZZ=             -0.3360
  YYZ=              0.0000  XYZ=              0.0000
 Hexadecapole moment (field-independent basis, Debye-Ang**3):
 XXXX=           -191.9422 YYYY=            -64.4643 ZZZZ=            -27.9896 XXXY=             11.1196
 XXXZ=              0.0001 YYYX=             14.5277 YYYZ=              0.0000 ZZZX=              0.0001
 ZZZY=              0.0000 XXYY=            -39.3816 XXZZ=            -36.6976 YYZZ=            -13.8094
 XXYZ=              0.0000 YYXZ=              0.0000 ZZXY=              4.8919
 N-N= 8.618080456994D+01 E-N=-7.914493984703D+02  KE= 2.267848334444D+02
  Exact polarizability:   0.000   0.000   0.000   0.000   0.000   0.000
 Approx polarizability:  16.055   1.451  10.830   0.000   0.000   9.029
                          Isotropic Fermi Contact Couplings
        Atom                 a.u.       MegaHertz       Gauss      10(-4) cm-1
     1  C(13)              0.27149     305.20336     108.90414     101.80488
     2  C(13)             -0.03554     -39.95623     -14.25738     -13.32796
     3  O(17)              0.02868     -17.38550      -6.20358      -5.79918
     4  H(1)              -0.09708    -433.93236    -154.83785    -144.74426
     5  H(1)              -0.02056     -91.91988     -32.79930     -30.66117
     6  H(1)              -0.02056     -91.91982     -32.79928     -30.66115
     7  H(1)               0.00362      16.16272       5.76726       5.39130
     8  H(1)               0.00362      16.16313       5.76741       5.39144
     9  H(1)               0.00207       9.23693       3.29597       3.08111
    10  H(1)               0.20851     932.02991     332.57144     310.89171
 --------------------------------------------------------
       Center         ----  Spin Dipole Couplings  ----
                      3XX-RR        3YY-RR        3ZZ-RR
 --------------------------------------------------------
     1   Atom        0.635307     -0.226337     -0.408970
     2   Atom       -0.008811      0.008465      0.000346
     3   Atom        0.084141     -0.032597     -0.051544
     4   Atom        0.217002     -0.076891     -0.140111
     5   Atom       -0.031175     -0.014220      0.045395
     6   Atom       -0.031175     -0.014220      0.045394
     7   Atom        0.000812      0.009555     -0.010367
     8   Atom        0.000812      0.009555     -0.010367
     9   Atom        0.003032      0.002826     -0.005858
    10   Atom       -0.034572      0.011310      0.023262
 --------------------------------------------------------
                        XY            XZ            YZ
 --------------------------------------------------------
     1   Atom        0.444429     -0.000006     -0.000002
     2   Atom       -0.008998      0.000000      0.000000
     3   Atom        0.038007      0.000000      0.000000
     4   Atom        0.150654     -0.000001      0.000000
     5   Atom        0.013357      0.002093     -0.071315
     6   Atom        0.013357     -0.002092      0.071315
     7   Atom       -0.009753     -0.007152      0.005133
     8   Atom       -0.009754      0.007152     -0.005133
     9   Atom       -0.006222      0.000000      0.000000
    10   Atom       -0.026289      0.000000      0.000000
 --------------------------------------------------------


 ---------------------------------------------------------------------------------
              Anisotropic Spin Dipole Couplings in Principal Axis System
 ---------------------------------------------------------------------------------

       Atom             a.u.   MegaHertz   Gauss  10(-4) cm-1        Axes

              Baa    -0.4145   -55.620   -19.847   -18.553 -0.3899  0.9209  0.0000
     1 C(13)  Bbb    -0.4090   -54.880   -19.582   -18.306  0.0000  0.0000  1.0000
              Bcc     0.8235   110.500    39.429    36.859  0.9209  0.3899  0.0000
 
              Baa    -0.0126    -1.697    -0.605    -0.566  0.9199  0.3921  0.0000
     2 C(13)  Bbb     0.0003     0.046     0.017     0.015  0.0000  0.0000  1.0000
              Bcc     0.0123     1.650     0.589     0.551 -0.3921  0.9199  0.0000
 
              Baa    -0.0515     3.730     1.331     1.244  0.0000  0.0000  1.0000
     3 O(17)  Bbb    -0.0439     3.175     1.133     1.059 -0.2846  0.9586  0.0000
              Bcc     0.0954    -6.905    -2.464    -2.303  0.9586  0.2846  0.0000
 
              Baa    -0.1404   -74.909   -26.729   -24.987 -0.3884  0.9215  0.0000
     4 H(1)   Bbb    -0.1401   -74.757   -26.675   -24.936  0.0000  0.0000  1.0000
              Bcc     0.2805   149.665    53.404    49.923  0.9215  0.3884  0.0000
 
              Baa    -0.0661   -35.243   -12.575   -11.756 -0.3337  0.7912  0.5125
     5 H(1)   Bbb    -0.0271   -14.453    -5.157    -4.821  0.9416  0.2533  0.2221
              Bcc     0.0931    49.695    17.733    16.577 -0.0458 -0.5567  0.8295
 
              Baa    -0.0661   -35.243   -12.575   -11.756 -0.3337  0.7912 -0.5125
     6 H(1)   Bbb    -0.0271   -14.453    -5.157    -4.821  0.9416  0.2533 -0.2221
              Bcc     0.0931    49.695    17.733    16.577  0.0459  0.5567  0.8295
 
              Baa    -0.0139    -7.396    -2.639    -2.467  0.4271 -0.0203  0.9040
     7 H(1)   Bbb    -0.0044    -2.344    -0.837    -0.782  0.7152  0.6193 -0.3240
              Bcc     0.0183     9.740     3.475     3.249 -0.5533  0.7849  0.2790
 
              Baa    -0.0139    -7.396    -2.639    -2.467 -0.4271  0.0203  0.9040
     8 H(1)   Bbb    -0.0044    -2.344    -0.837    -0.782  0.7152  0.6193  0.3240
              Bcc     0.0183     9.740     3.475     3.249 -0.5533  0.7849 -0.2790
 
              Baa    -0.0059    -3.126    -1.115    -1.043  0.0000  0.0000  1.0000
     9 H(1)   Bbb    -0.0033    -1.757    -0.627    -0.586  0.7012  0.7129  0.0000
              Bcc     0.0092     4.883     1.742     1.629  0.7129 -0.7012  0.0000
 
              Baa    -0.0465   -24.822    -8.857    -8.280  0.9104  0.4138  0.0000
    10 H(1)   Bbb     0.0233    12.411     4.428     4.140 -0.4138  0.9104  0.0005
              Bcc     0.0233    12.411     4.429     4.140  0.0002 -0.0005  1.0000
 

 ---------------------------------------------------------------------------------

 No NMR shielding tensors so no spin-rotation constants.
 Leave Link  601 at Thu Jan 24 17:57:02 2019, MaxMem=   33554432 cpu:       0.2
 (Enter /home/programs/G09_64/g09/l701.exe)
 Compute integral second derivatives.
 ... and contract with generalized density number  0.
 Leave Link  701 at Thu Jan 24 17:57:02 2019, MaxMem=   33554432 cpu:       0.1
 (Enter /home/programs/G09_64/g09/l702.exe)
 L702 exits ... SP integral derivatives will be done elsewhere.
 Leave Link  702 at Thu Jan 24 17:57:02 2019, MaxMem=   33554432 cpu:       0.0
 (Enter /home/programs/G09_64/g09/l703.exe)
 Compute integral second derivatives, UseDBF=F ICtDFT=           0.
 Integral derivatives from FoFDir, PRISM(SPDF).
 Calling FoFJK, ICntrl=    100147 FMM=F ISym2X=0 I1Cent= 0 IOpClX= 1 NMat=1 NMatS=1 NMatT=0.
 FoFCou: FMM=F IPFlag=           0 FMFlag=      100000 FMFlg1=         800
         NFxFlg=           0 DoJE=F BraDBF=F KetDBF=F FulRan=T
         Omega=  0.000000  0.000000  1.000000  0.000000  0.000000 ICntrl=  100147 IOpCl=  1
         NMat0=    1 NMatS0=    1 NMatT0=    0 NMatD0=    1 NMtDS0=    0 NMtDT0=    0
         I1Cent=           0 NGrid=           0.
 Symmetry not used in FoFCou.
 Leave Link  703 at Thu Jan 24 17:57:02 2019, MaxMem=   33554432 cpu:       0.2
 (Enter /home/programs/G09_64/g09/l716.exe)
 Dipole        =-3.91292249D-02 4.74440755D-01 3.68150310D-06
 Polarizability= 0.00000000D+00 0.00000000D+00 0.00000000D+00
                 0.00000000D+00 0.00000000D+00 0.00000000D+00
 -------------------------------------------------------------------
 Center     Atomic                   Forces (Hartrees/Bohr)
 Number     Number              X              Y              Z
 -------------------------------------------------------------------
      1        6           0.015999064   -0.024452339    0.000000109
      2        6          -0.018517183    0.028787742    0.000000404
      3        8           0.003597144   -0.054194468   -0.000000321
      4        1           0.041485321    0.017899008   -0.000000200
      5        1          -0.002432291   -0.002487359    0.001265987
      6        1          -0.002432059   -0.002487309   -0.001265917
      7        1           0.003679440    0.004631275    0.003487528
      8        1           0.003679268    0.004631653   -0.003487856
      9        1          -0.016152400    0.041102834    0.000000209
     10        1          -0.028906304   -0.013431035    0.000000056
 -------------------------------------------------------------------
 Cartesian Forces:  Max     0.054194468 RMS     0.018352945
 Force constants in Cartesian coordinates: 
                1             2             3             4             5 
      1  0.243746D+00
      2 -0.212734D+00  0.714242D+00
      3  0.329538D-05  0.000000D+00  0.856581D+00
      4 -0.159517D+00  0.157524D+00  0.000000D+00  0.751790D+00
      5  0.140461D+00 -0.292690D+00  0.000000D+00 -0.427055D-02  0.845906D+00
      6  0.000000D+00  0.000000D+00 -0.127477D+00  0.000000D+00  0.000000D+00
      7 -0.422851D-01  0.659242D-02  0.000000D+00 -0.390135D+00 -0.159018D+00
      8  0.368659D-01  0.144394D-01  0.000000D+00 -0.332999D-01 -0.158184D+00
      9  0.000000D+00  0.000000D+00  0.484353D-02  0.000000D+00  0.000000D+00
     10  0.182099D+00  0.772489D-01  0.000000D+00 -0.332794D-01 -0.109673D-01
     11  0.883808D-01  0.407805D-02  0.000000D+00  0.510195D-02  0.172662D-02
     12  0.000000D+00  0.000000D+00 -0.304763D-01  0.000000D+00  0.000000D+00
     13 -0.349301D-01  0.283397D-02  0.208212D-01  0.384494D-02  0.168073D-01
     14  0.136602D-01 -0.192659D+00  0.185517D+00 -0.651363D-02 -0.131483D-01
     15  0.643295D-02  0.180283D+00 -0.361749D+00  0.915326D-03 -0.595386D-02
     16 -0.349306D-01  0.283197D-02 -0.208244D-01  0.384509D-02  0.168075D-01
     17  0.136583D-01 -0.192661D+00 -0.185518D+00 -0.651381D-02 -0.131484D-01
     18 -0.643612D-02 -0.180284D+00 -0.361747D+00 -0.915264D-03  0.595375D-02
     19  0.474484D-02  0.163939D-01  0.261833D-01 -0.779394D-01 -0.308810D-01
     20 -0.374600D-02 -0.168942D-01 -0.320358D-01 -0.331016D-01 -0.191028D+00
     21 -0.528695D-04  0.492585D-02  0.583384D-02 -0.472784D-01 -0.161159D+00
     22  0.474476D-02  0.163940D-01 -0.261833D-01 -0.779394D-01 -0.308815D-01
     23 -0.374586D-02 -0.168943D-01  0.320358D-01 -0.331021D-01 -0.191029D+00
     24  0.528520D-04 -0.492580D-02  0.583380D-02  0.472791D-01  0.161160D+00
     25 -0.916923D-02 -0.418966D-02  0.000000D+00 -0.301211D-01  0.611860D-01
     26 -0.173384D-02 -0.707403D-03  0.000000D+00 -0.505847D-01  0.105129D-01
     27  0.000000D+00  0.000000D+00  0.113386D-02  0.000000D+00  0.000000D+00
     28 -0.154502D+00 -0.628960D-01  0.000000D+00  0.945103D-02  0.756157D-03
     29 -0.710675D-01 -0.202536D-01  0.000000D+00  0.476044D-02  0.108234D-02
     30  0.000000D+00  0.000000D+00  0.722340D-02  0.000000D+00  0.000000D+00
                6             7             8             9            10 
      6  0.844863D+00
      7  0.000000D+00  0.782990D+00
      8  0.000000D+00 -0.218192D+00  0.673663D+00
      9 -0.646970D-01 -0.230005D-05  0.404116D-05  0.147296D-01
     10  0.000000D+00  0.117316D-02  0.693445D-02  0.000000D+00 -0.141280D+00
     11  0.000000D+00  0.138445D-02 -0.377575D-03  0.000000D+00 -0.899662D-01
     12 -0.180856D-03  0.000000D+00  0.000000D+00  0.293581D-03  0.000000D+00
     13 -0.260290D-01  0.247176D-02 -0.166096D-02  0.806410D-03 -0.194886D-01
     14  0.283655D-01 -0.984470D-03  0.130146D-02 -0.948747D-03 -0.579273D-02
     15  0.797536D-02  0.310512D-03 -0.259549D-03  0.503287D-04 -0.437747D-02
     16  0.260290D-01  0.247181D-02 -0.166098D-02 -0.806410D-03 -0.194882D-01
     17 -0.283655D-01 -0.984483D-03  0.130147D-02  0.948751D-03 -0.579257D-02
     18  0.797521D-02 -0.310542D-03  0.259553D-03  0.503234D-04  0.437764D-02
     19 -0.517579D-01 -0.284903D-01 -0.356280D-01 -0.352589D-01  0.824058D-03
     20 -0.163372D+00 -0.121262D-01 -0.684013D-02 -0.115951D-01 -0.111462D-02
     21 -0.330160D+00 -0.344460D-02 -0.793026D-03  0.897701D-02 -0.589541D-04
     22  0.517587D-01 -0.284903D-01 -0.356280D-01  0.352588D-01  0.824039D-03
     23  0.163373D+00 -0.121263D-01 -0.684007D-02  0.115950D-01 -0.111466D-02
     24 -0.330160D+00  0.344456D-02  0.792967D-03  0.897715D-02  0.589712D-04
     25  0.000000D+00 -0.299554D+00  0.283857D+00  0.202383D-05 -0.163931D-02
     26  0.000000D+00  0.395843D+00 -0.517553D+00 -0.358409D-05 -0.657784D-03
     27 -0.800480D-02  0.271075D-05 -0.347191D-05  0.267448D-01  0.000000D+00
     28  0.000000D+00 -0.151906D-03 -0.158844D-02  0.000000D+00  0.302558D-01
     29  0.000000D+00 -0.388470D-03 -0.909556D-03  0.000000D+00  0.312225D-01
     30 -0.134472D-03  0.000000D+00  0.000000D+00  0.305959D-04  0.000000D+00
               11            12            13            14            15 
     11  0.330761D-01
     12  0.000000D+00  0.683949D-01
     13 -0.167548D-01  0.135204D-01  0.396057D-01
     14 -0.544666D-02  0.502077D-02 -0.830446D-02  0.191304D+00
     15 -0.264827D-02  0.909407D-03 -0.823202D-02 -0.193427D+00  0.364625D+00
     16 -0.167546D-01 -0.135202D-01  0.213713D-02  0.154710D-02  0.287496D-02
     17 -0.544658D-02 -0.502069D-02  0.154729D-02  0.183580D-01  0.233792D-01
     18  0.264845D-02  0.909516D-03 -0.287510D-02 -0.233793D-01 -0.141982D-01
     19  0.153177D-03  0.367233D-03  0.630591D-03 -0.109462D-02 -0.406696D-03
     20  0.731704D-04  0.842867D-04 -0.152886D-02  0.228080D-02  0.207607D-03
     21  0.708815D-04  0.662933D-04  0.283375D-03  0.190102D-03  0.106951D-02
     22  0.153192D-03 -0.367253D-03 -0.295410D-02  0.468294D-02  0.160135D-02
     23  0.731689D-04 -0.842797D-04  0.362611D-02 -0.360210D-02 -0.152465D-02
     24 -0.708784D-04  0.663010D-04  0.147567D-02 -0.985683D-03  0.834603D-03
     25  0.267370D-03  0.000000D+00  0.548386D-03 -0.336036D-03  0.157215D-03
     26  0.373277D-04  0.000000D+00 -0.222247D-03  0.192161D-03  0.850192D-05
     27  0.000000D+00  0.151730D-03  0.951837D-04 -0.406610D-05 -0.771272D-05
     28  0.280347D-01  0.000000D+00  0.813429D-02  0.313567D-02  0.723869D-03
     29 -0.277936D-01  0.000000D+00  0.365669D-02  0.141959D-02 -0.653276D-04
     30  0.000000D+00 -0.401347D-01  0.133912D-03 -0.348716D-03  0.490889D-03
               16            17            18            19            20 
     16  0.396058D-01
     17 -0.830263D-02  0.191306D+00
     18  0.823518D-02  0.193427D+00  0.364623D+00
     19 -0.295412D-02  0.468292D-02 -0.160134D-02  0.938871D-01
     20  0.362615D-02 -0.360208D-02  0.152462D-02  0.412427D-01  0.196591D+00
     21 -0.147566D-02  0.985700D-03  0.834610D-03  0.577211D-01  0.179116D+00
     22  0.630582D-03 -0.109460D-02  0.406698D-03  0.462105D-02  0.538128D-02
     23 -0.152884D-02  0.228079D-02 -0.207608D-03  0.538131D-02  0.175528D-01
     24 -0.283369D-03 -0.190094D-03  0.106951D-02  0.592984D-02  0.245577D-01
     25  0.548394D-03 -0.336057D-03 -0.157213D-03  0.454741D-02  0.100740D-02
     26 -0.222251D-03  0.192184D-03 -0.848958D-05 -0.378066D-04  0.158632D-02
     27 -0.951789D-04  0.407348D-05 -0.771097D-05 -0.101603D-02  0.142389D-02
     28  0.813411D-02  0.313560D-02 -0.723939D-03  0.128861D-03  0.359857D-03
     29  0.365663D-02  0.141956D-02  0.652913D-04 -0.212667D-03  0.280934D-03
     30 -0.133928D-03  0.348704D-03  0.490887D-03 -0.160532D-03  0.884270D-04
               21            22            23            24            25 
     21  0.333395D+00
     22 -0.592982D-02  0.938872D-01
     23 -0.245577D-01  0.412431D-01  0.196591D+00
     24 -0.207947D-01 -0.577217D-01 -0.179117D+00  0.333395D+00
     25  0.244859D-03  0.454735D-02  0.100739D-02 -0.244859D-03  0.329935D+00
     26  0.112785D-02 -0.377743D-04  0.158628D-02 -0.112785D-02 -0.342587D+00
     27  0.734267D-03  0.101603D-02 -0.142386D-02  0.734226D-03 -0.233863D-05
     28 -0.895846D-05  0.128877D-03  0.359867D-03  0.895335D-05  0.356711D-03
     29  0.931382D-04 -0.212666D-03  0.280942D-03 -0.931431D-04  0.123198D-03
     30  0.434272D-04  0.160534D-03 -0.884307D-04  0.434260D-04  0.000000D+00
               26            27            28            29            30 
     26  0.503955D+00
     27  0.341496D-05 -0.214673D-01
     28  0.240789D-03  0.000000D+00  0.980640D-01
     29  0.198594D-03  0.000000D+00  0.284618D-01  0.442748D-01
     30  0.000000D+00 -0.114028D-04  0.000000D+00  0.000000D+00  0.319579D-01
 Force constants in internal coordinates: 
                1             2             3             4             5 
      1  0.480008D+00
      2  0.543549D-02  0.163616D-01
      3 -0.214329D-02 -0.133854D-02  0.489905D+00
      4 -0.214328D-02 -0.133858D-02 -0.600495D-02  0.489905D+00
      5  0.237984D-01 -0.158459D-02 -0.705823D-03 -0.705836D-03  0.548030D+00
      6 -0.270215D-04 -0.161542D-03  0.919136D-04 -0.838564D-03  0.153985D-01
      7 -0.269444D-04 -0.161560D-03 -0.838561D-03  0.919182D-04  0.153986D-01
      8  0.214797D-04  0.394834D-03 -0.263361D-03 -0.263377D-03 -0.305592D-01
      9 -0.597180D-02  0.153044D+00 -0.145260D-02 -0.145258D-02  0.405889D-03
     10  0.704999D-02  0.724280D-02 -0.172828D-02 -0.172827D-02  0.145309D-02
     11  0.137899D-01 -0.823608D-02  0.415930D-02 -0.624192D-02 -0.208234D-02
     12  0.137898D-01 -0.823593D-02 -0.624190D-02  0.415933D-02 -0.208240D-02
     13 -0.102871D-01  0.623893D-02 -0.107532D-02 -0.653392D-04  0.886512D-03
     14 -0.102871D-01  0.623867D-02 -0.653300D-04 -0.107534D-02  0.886545D-03
     15 -0.183992D-01  0.215634D-02  0.428178D-02  0.428176D-02  0.185008D-02
     16  0.159832D-01  0.682773D-02 -0.248221D-02 -0.248227D-02  0.935802D-02
     17  0.128913D-01 -0.248952D-02 -0.108982D-02  0.279648D-02 -0.198960D-01
     18  0.128914D-01 -0.248953D-02  0.279647D-02 -0.108979D-02 -0.198959D-01
     19 -0.154957D-01 -0.152722D-02  0.893001D-03  0.157269D-03  0.166382D-01
     20 -0.154957D-01 -0.152721D-02  0.157244D-03  0.893011D-03  0.166382D-01
     21 -0.105924D-01  0.108251D-02 -0.232135D-03 -0.232142D-03 -0.330228D-02
     22  0.444814D-02  0.182758D-02 -0.340156D-03 -0.340143D-03  0.653703D-01
     23 -0.138418D-02  0.120500D-02  0.517549D-03  0.517550D-03 -0.570999D-03
     24  0.000000D+00  0.000000D+00 -0.660268D-03  0.660262D-03  0.000000D+00
     25  0.000000D+00  0.000000D+00 -0.795598D-03  0.795601D-03  0.000000D+00
     26 -0.139420D-02  0.860266D-03 -0.188137D-02  0.112104D-02  0.142126D-01
     27  0.139425D-02 -0.860431D-03 -0.112105D-02  0.188138D-02 -0.142126D-01
     28 -0.152964D-02  0.813874D-02 -0.120670D-02 -0.329429D-02  0.990363D-03
     29 -0.292385D-02  0.899908D-02 -0.229247D-02 -0.296885D-02  0.152030D-01
     30 -0.135407D-03  0.727839D-02 -0.153215D-02 -0.220851D-02 -0.132223D-01
     31  0.152966D-02 -0.813864D-02  0.329429D-02  0.120670D-02 -0.990365D-03
     32  0.135442D-03 -0.727830D-02  0.220852D-02  0.153214D-02  0.132223D-01
     33  0.292389D-02 -0.899899D-02  0.296884D-02  0.229248D-02 -0.152030D-01
     34  0.000000D+00  0.000000D+00 -0.143458D-02  0.143457D-02  0.000000D+00
     35 -0.164904D-01 -0.302433D-03  0.912963D-03 -0.530691D-03  0.857703D-02
     36  0.164905D-01  0.302433D-03  0.530704D-03 -0.912963D-03 -0.857691D-02
                6             7             8             9            10 
      6  0.470095D+00
      7 -0.362364D-02  0.470096D+00
      8  0.461702D-03  0.461681D-03  0.770339D+00
      9  0.277456D-03  0.277472D-03  0.112884D-04  0.110318D+00
     10 -0.820692D-03 -0.820727D-03  0.550070D-03 -0.525397D-02  0.738676D-01
     11 -0.250196D-02  0.219283D-02 -0.588647D-03  0.492265D-02 -0.122730D-01
     12  0.219282D-02 -0.250194D-02 -0.588709D-03  0.492256D-02 -0.122731D-01
     13  0.673182D-03  0.127585D-03  0.128250D-03 -0.319580D-02 -0.298928D-01
     14  0.127562D-03  0.673187D-03  0.128250D-03 -0.319564D-02 -0.298926D-01
     15  0.349160D-03  0.349148D-03  0.597582D-03 -0.137230D-02  0.130791D-01
     16 -0.412172D-02 -0.412171D-02  0.107187D-01 -0.229687D-02  0.131392D-01
     17  0.202841D-02 -0.479285D-02 -0.505398D-03  0.736106D-03 -0.517119D-02
     18 -0.479284D-02  0.202842D-02 -0.505452D-03  0.736098D-03 -0.517118D-02
     19  0.276992D-02  0.522832D-03 -0.526470D-02  0.679045D-03 -0.278068D-02
     20  0.522816D-03  0.276992D-02 -0.526463D-02  0.679043D-03 -0.278067D-02
     21  0.357857D-02  0.357856D-02  0.703072D-03 -0.493002D-03  0.251655D-02
     22 -0.425298D-02 -0.425294D-02  0.247835D-01 -0.870511D-03  0.340459D-02
     23 -0.148243D-03 -0.148247D-03 -0.144015D-03  0.974876D-03  0.879298D-05
     24 -0.608440D-04  0.608451D-04  0.000000D+00  0.000000D+00  0.000000D+00
     25 -0.189128D-02  0.189128D-02  0.000000D+00  0.000000D+00  0.000000D+00
     26  0.152882D-03 -0.285264D-02 -0.121989D-03 -0.148201D-03  0.162264D-02
     27  0.285264D-02 -0.152891D-03  0.121953D-03  0.148299D-03 -0.162258D-02
     28 -0.276722D-02  0.256769D-02  0.218986D-03 -0.479619D-02  0.405776D-02
     29 -0.723052D-03 -0.217623D-02  0.970005D-04 -0.494444D-02  0.568038D-02
     30  0.197670D-02  0.523515D-03  0.340943D-03 -0.464794D-02  0.243516D-02
     31 -0.256769D-02  0.276723D-02 -0.218963D-03  0.479613D-02 -0.405778D-02
     32 -0.523521D-03 -0.197670D-02 -0.340949D-03  0.464788D-02 -0.243516D-02
     33  0.217623D-02  0.723053D-03 -0.970061D-04  0.494438D-02 -0.568039D-02
     34  0.253868D-02 -0.253871D-02  0.000000D+00  0.000000D+00  0.000000D+00
     35  0.977640D-03  0.557854D-02 -0.292660D-02  0.127200D-03 -0.211266D-03
     36 -0.557856D-02 -0.977654D-03  0.292654D-02 -0.127203D-03  0.211276D-03
               11            12            13            14            15 
     11  0.117565D+00
     12 -0.420110D-01  0.117565D+00
     13 -0.310181D-01  0.126453D-01  0.344541D-01
     14  0.126454D-01 -0.310181D-01  0.722619D-02  0.344540D-01
     15 -0.544159D-01 -0.544159D-01  0.107731D-01  0.107731D-01  0.854983D-01
     16 -0.838318D-02 -0.838337D-02 -0.911908D-03 -0.911827D-03  0.851744D-02
     17 -0.899954D-02  0.177372D-01  0.301044D-02 -0.306941D-02 -0.496733D-02
     18  0.177371D-01 -0.899946D-02 -0.306937D-02  0.301043D-02 -0.496734D-02
     19  0.526491D-02 -0.312924D-02 -0.370037D-03  0.119336D-02 -0.680061D-03
     20 -0.312929D-02  0.526493D-02  0.119337D-02 -0.370064D-03 -0.680046D-03
     21 -0.230530D-02 -0.230532D-02  0.154526D-03  0.154536D-03  0.257738D-02
     22 -0.859001D-03 -0.859031D-03 -0.935368D-03 -0.935359D-03  0.551013D-03
     23 -0.225322D-03 -0.225333D-03  0.560067D-04  0.560235D-04  0.371663D-03
     24 -0.215870D-03  0.215856D-03  0.864928D-04 -0.864835D-04  0.000000D+00
     25 -0.487784D-02  0.487787D-02 -0.481077D-02  0.481071D-02  0.000000D+00
     26 -0.896310D-02  0.644144D-02 -0.403490D-02  0.388125D-02  0.146040D-02
     27 -0.644142D-02  0.896314D-02 -0.388131D-02  0.403483D-02 -0.146044D-02
     28  0.545973D-02 -0.727727D-02  0.355273D-02  0.913025D-03 -0.451076D-02
     29  0.137447D-02 -0.571371D-02  0.432860D-02 -0.164314D-04 -0.305034D-02
     30  0.389615D-02 -0.319200D-02  0.448219D-02  0.137147D-03 -0.597119D-02
     31  0.727726D-02 -0.545974D-02 -0.913013D-03 -0.355270D-02  0.451078D-02
     32  0.319200D-02 -0.389618D-02 -0.137142D-03 -0.448215D-02  0.597120D-02
     33  0.571367D-02 -0.137447D-02  0.164477D-04 -0.432858D-02  0.305036D-02
     34 -0.928682D-02  0.928681D-02  0.222382D-02 -0.222382D-02  0.000000D+00
     35  0.380417D-02 -0.530771D-02 -0.667706D-03  0.138604D-02  0.116879D-02
     36  0.530772D-02 -0.380418D-02 -0.138604D-02  0.667717D-03 -0.116879D-02
               16            17            18            19            20 
     16  0.179947D+00
     17 -0.403996D-01  0.973776D-01
     18 -0.403996D-01 -0.156476D-01  0.973777D-01
     19 -0.659902D-01 -0.355653D-01  0.249894D-01  0.758674D-01
     20 -0.659899D-01  0.249894D-01 -0.355653D-01  0.783619D-02  0.758672D-01
     21  0.300732D-01 -0.293334D-01 -0.293335D-01 -0.655804D-02 -0.655800D-02
     22  0.355190D-01 -0.535661D-02 -0.535662D-02 -0.147773D-01 -0.147772D-01
     23  0.247660D-03 -0.400480D-03 -0.400492D-03  0.215542D-03  0.215549D-03
     24  0.000000D+00 -0.236086D-03  0.236091D-03  0.123620D-03 -0.123615D-03
     25  0.000000D+00  0.387540D-02 -0.387536D-02 -0.162116D-01  0.162116D-01
     26  0.628547D-02 -0.648094D-02 -0.756807D-02  0.145167D-01  0.111487D-04
     27 -0.628547D-02  0.756804D-02  0.648099D-02 -0.111282D-04 -0.145167D-01
     28  0.311235D-02  0.567567D-04 -0.243589D-02 -0.159056D-01  0.144504D-01
     29  0.939783D-02 -0.102996D-01 -0.612860D-02  0.148226D-01 -0.175001D-02
     30 -0.317310D-02  0.374940D-02  0.792045D-02  0.294793D-03 -0.162779D-01
     31 -0.311237D-02  0.243592D-02 -0.567302D-04 -0.144504D-01  0.159057D-01
     32  0.317311D-02 -0.792042D-02 -0.374944D-02  0.162778D-01 -0.294771D-03
     33 -0.939782D-02  0.612856D-02  0.102996D-01  0.175003D-02 -0.148226D-01
     34  0.000000D+00  0.338886D-01 -0.338886D-01 -0.106021D-01  0.106022D-01
     35 -0.234575D-01 -0.387873D-01 -0.446546D-02  0.288080D-01  0.165163D-01
     36  0.234576D-01  0.446541D-02  0.387873D-01 -0.165164D-01 -0.288080D-01
               21            22            23            24            25 
     21  0.405321D-01
     22  0.426859D-02  0.284696D+00
     23  0.111055D-03  0.756665D-04  0.363363D-01
     24  0.000000D+00  0.000000D+00  0.000000D+00  0.151907D-01
     25  0.000000D+00  0.000000D+00  0.000000D+00  0.270133D-04  0.170442D-01
     26 -0.691177D-02  0.660811D-03  0.177128D-03  0.374349D-04 -0.405905D-03
     27  0.691177D-02 -0.660827D-03 -0.177121D-03  0.374369D-04 -0.405905D-03
     28  0.663478D-03  0.582124D-03 -0.331016D-04  0.296423D-04  0.895034D-02
     29 -0.624828D-02  0.124292D-02  0.144022D-03  0.400638D-04 -0.849974D-02
     30  0.757526D-02 -0.787145D-04 -0.210226D-03  0.400659D-04 -0.849974D-02
     31 -0.663505D-03 -0.582095D-03  0.330948D-04  0.296307D-04  0.895036D-02
     32 -0.757526D-02  0.787035D-04  0.210219D-03  0.400522D-04 -0.849973D-02
     33  0.624828D-02 -0.124293D-02 -0.144030D-03  0.400543D-04 -0.849973D-02
     34  0.000000D+00  0.000000D+00  0.000000D+00 -0.150470D-03 -0.371479D-02
     35  0.210236D-01 -0.678672D-02  0.206808D-03  0.645069D-04  0.120682D-02
     36 -0.210236D-01  0.678681D-02 -0.206812D-03  0.645051D-04  0.120684D-02
               26            27            28            29            30 
     26  0.172978D-01
     27  0.208563D-03  0.172978D-01
     28 -0.848027D-02 -0.912298D-02  0.183212D-01
     29  0.922347D-02 -0.850851D-02  0.890594D-03  0.186138D-01
     30 -0.786581D-02  0.858077D-02  0.247891D-03  0.881827D-03  0.173284D-01
     31 -0.912297D-02 -0.848026D-02  0.875626D-02 -0.931707D-02 -0.867437D-02
     32  0.858077D-02 -0.786580D-02 -0.867436D-02  0.840614D-02 -0.804043D-02
     33 -0.850850D-02  0.922348D-02 -0.931706D-02 -0.932583D-02  0.840615D-02
     34  0.349069D-02  0.349067D-02 -0.540614D-02  0.179934D-02  0.179932D-02
     35 -0.115357D-02 -0.183707D-02  0.206163D-02 -0.298762D-03 -0.982266D-03
     36 -0.183707D-02 -0.115356D-02  0.216601D-02 -0.877903D-03 -0.194389D-03
               31            32            33            34            35 
     31  0.183212D-01
     32  0.247884D-03  0.173284D-01
     33  0.890585D-03  0.881815D-03  0.186138D-01
     34 -0.540614D-02  0.179934D-02  0.179931D-02  0.249148D-01
     35  0.216599D-02 -0.194400D-03 -0.877903D-03 -0.101988D-01  0.346779D-01
     36  0.206164D-02 -0.982271D-03 -0.298757D-03 -0.101988D-01 -0.204390D-01
               36 
     36  0.346780D-01
 Leave Link  716 at Thu Jan 24 17:57:02 2019, MaxMem=   33554432 cpu:       0.0
 (Enter /home/programs/G09_64/g09/l103.exe)

 GradGradGradGradGradGradGradGradGradGradGradGradGradGradGradGradGradGrad
 Berny optimization.
 Red2BG is reusing G-inverse.
 Internal  Forces:  Max     0.042483420 RMS     0.011819628
 Search for a saddle point.
 Step number   1 out of a maximum of   46
 All quantities printed in internal units (Hartrees-Bohrs-Radians)
 Swaping is turned off.
 Second derivative matrix not updated -- analytic derivatives used.
 ITU=  0
     Eigenvalues ---   -0.10280   0.00155   0.00415   0.01519   0.03631
     Eigenvalues ---    0.03719   0.04180   0.07151   0.08140   0.10122
     Eigenvalues ---    0.14407   0.15139   0.16155   0.21059   0.22273
     Eigenvalues ---    0.22847   0.30530   0.46275   0.47418   0.48186
     Eigenvalues ---    0.48803   0.49641   0.57568   0.77558
 Eigenvectors required to have negative eigenvalues:
                          R2        R9        D5        D9        D4
   1                   -0.78990   0.58151   0.06856  -0.06856   0.06577
                          D7        D6        D8        A1        A4
   1                   -0.06576   0.06297  -0.06297   0.04906   0.04742
 RFO step:  Lambda0=6.996163684D-03 Lambda=-1.11111966D-02.
 Linear search not attempted -- option 19 set.
 Iteration  1 RMS(Cart)=  0.03902083 RMS(Int)=  0.00350821
 Iteration  2 RMS(Cart)=  0.00362645 RMS(Int)=  0.00173655
 Iteration  3 RMS(Cart)=  0.00000807 RMS(Int)=  0.00173654
 Iteration  4 RMS(Cart)=  0.00000006 RMS(Int)=  0.00173654
 Variable       Old X    -DE/DX   Delta X   Delta X   Delta X     New X
                                 (Linear)    (Quad)   (Total)
    R1        2.81494   0.03417   0.00000   0.07734   0.07734   2.89228
    R2        2.64544   0.01334   0.00000  -0.21495  -0.21495   2.43049
    R3        2.04391   0.00245   0.00000   0.00767   0.00767   2.05158
    R4        2.04391   0.00245   0.00000   0.00767   0.00767   2.05158
    R5        2.68200   0.01605   0.00000   0.03321   0.03321   2.71521
    R6        2.06201   0.00608   0.00000   0.01103   0.01103   2.07304
    R7        2.06201   0.00608   0.00000   0.01103   0.01103   2.07304
    R8        1.80853   0.04248   0.00000   0.05833   0.05833   1.86687
    R9        1.67339  -0.03187   0.00000   0.06185   0.06185   1.73524
    A1        1.82405   0.00272   0.00000   0.05905   0.05997   1.88401
    A2        2.01871  -0.00116   0.00000  -0.04556  -0.04955   1.96916
    A3        2.01871  -0.00116   0.00000  -0.04556  -0.04955   1.96916
    A4        1.78779   0.00033   0.00000   0.05590   0.05678   1.84458
    A5        1.78780   0.00033   0.00000   0.05589   0.05678   1.84458
    A6        1.98354  -0.00018   0.00000  -0.03398  -0.04112   1.94242
    A7        1.88568   0.00058   0.00000   0.00569   0.00569   1.89137
    A8        1.91901  -0.00103   0.00000  -0.00786  -0.00793   1.91109
    A9        1.91901  -0.00103   0.00000  -0.00786  -0.00792   1.91109
   A10        1.92839   0.00133   0.00000   0.00939   0.00941   1.93780
   A11        1.92839   0.00133   0.00000   0.00939   0.00941   1.93780
   A12        1.88362  -0.00119   0.00000  -0.00889  -0.00901   1.87460
   A13        1.89983  -0.02182   0.00000  -0.08677  -0.08677   1.81306
   A14        3.10695   0.00089   0.00000   0.02559   0.02559   3.13254
   A15        3.14159   0.00000   0.00000   0.00000   0.00000   3.14159
    D1        3.14159   0.00000   0.00000   0.00000   0.00000   3.14159
    D2       -1.03577   0.00136   0.00000   0.01027   0.01023  -1.02554
    D3        1.03576  -0.00136   0.00000  -0.01027  -0.01023   1.02553
    D4       -1.19063   0.00154   0.00000   0.08258   0.08061  -1.11002
    D5        0.91520   0.00290   0.00000   0.09285   0.09084   1.00604
    D6        2.98673   0.00018   0.00000   0.07231   0.07037   3.05711
    D7        1.19061  -0.00154   0.00000  -0.08258  -0.08061   1.11001
    D8       -2.98675  -0.00018   0.00000  -0.07230  -0.07037  -3.05712
    D9       -0.91521  -0.00290   0.00000  -0.09285  -0.09084  -1.00605
   D10        3.14159   0.00000   0.00000   0.00000   0.00000   3.14159
   D11        1.04163   0.00011   0.00000   0.00047   0.00047   1.04209
   D12       -1.04164  -0.00011   0.00000  -0.00047  -0.00046  -1.04210
         Item               Value     Threshold  Converged?
 Maximum Force            0.042483     0.000450     NO 
 RMS     Force            0.011820     0.000300     NO 
 Maximum Displacement     0.132437     0.001800     NO 
 RMS     Displacement     0.040080     0.001200     NO 
 Predicted change in Energy=-2.179351D-03
 GradGradGradGradGradGradGradGradGradGradGradGradGradGradGradGradGradGrad

 Leave Link  103 at Thu Jan 24 17:57:02 2019, MaxMem=   33554432 cpu:       0.0
 (Enter /home/programs/G09_64/g09/l202.exe)
                          Input orientation:                          
 ---------------------------------------------------------------------
 Center     Atomic      Atomic             Coordinates (Angstroms)
 Number     Number       Type             X           Y           Z
 ---------------------------------------------------------------------
      1          6           0        1.072140   -0.647227    0.000000
      2          6           0        0.104742    0.538801    0.000001
      3          8           0       -1.238127    0.027753    0.000000
      4          1           0        2.270796   -0.180928   -0.000004
      5          1           0        0.993540   -1.254797    0.896282
      6          1           0        0.993535   -1.254799   -0.896279
      7          1           0        0.288925    1.161523    0.884149
      8          1           0        0.288926    1.161524   -0.884146
      9          1           0       -1.800748    0.839796    0.000004
     10          1           0        3.123524    0.159717   -0.000007
 ---------------------------------------------------------------------
                    Distance matrix (angstroms):
                    1          2          3          4          5
     1  C    0.000000
     2  C    1.530530   0.000000
     3  O    2.406851   1.436826   0.000000
     4  H    1.286162   2.282499   3.515124   0.000000
     5  H    1.085651   2.193234   2.725545   1.894177   0.000000
     6  H    1.085651   2.193234   2.725541   1.894176   1.792561
     7  H    2.160260   1.097006   2.097390   2.551807   2.516988
     8  H    2.160259   1.097006   2.097390   2.551803   3.083020
     9  H    3.234922   1.929117   0.987904   4.197541   3.605368
    10  H    2.204390   3.042490   4.363647   0.918250   2.709431
                    6          7          8          9         10
     6  H    0.000000
     7  H    3.083020   0.000000
     8  H    2.516991   1.768295   0.000000
     9  H    3.605367   2.291714   2.291717   0.000000
    10  H    2.709430   3.133735   3.133730   4.971012   0.000000
 Symmetry turned off by external request.
 Stoichiometry    C2H7O(2)
 Framework group  C1[X(C2H7O)]
 Deg. of freedom    24
 Full point group                 C1      NOp   1
 Rotational constants (GHZ):     32.4943905      7.7851151      6.8221523
 Leave Link  202 at Thu Jan 24 17:57:02 2019, MaxMem=   33554432 cpu:       0.0
 (Enter /home/programs/G09_64/g09/l301.exe)
 Standard basis: STO-3G (5D, 7F)
 Ernie: Thresh=  0.10000D-02 Tol=  0.10000D-05 Strict=F.
 Integral buffers will be    131072 words long.
 Raffenetti 2 integral format.
 Two-electron integral symmetry is turned off.
    22 basis functions,    66 primitive gaussians,    22 cartesian basis functions
    14 alpha electrons       13 beta electrons
       nuclear repulsion energy        85.3493894531 Hartrees.
 IExCor=    0 DFT=F Ex=HF Corr=None ExCW=0 ScaHFX=  1.000000
 ScaDFX=  1.000000  1.000000  1.000000  1.000000 ScalE2=  1.000000  1.000000
 IRadAn=      0 IRanWt=     -1 IRanGd=            0 ICorTp=0
 NAtoms=   10 NActive=   10 NUniq=   10 SFac= 1.00D+00 NAtFMM=   50 NAOKFM=F Big=F
 Leave Link  301 at Thu Jan 24 17:57:02 2019, MaxMem=   33554432 cpu:       0.0
 (Enter /home/programs/G09_64/g09/l302.exe)
 NPDir=0 NMtPBC=     1 NCelOv=     1 NCel=       1 NClECP=     1 NCelD=      1
         NCelK=      1 NCelE2=     1 NClLst=     1 CellRange=     0.0.
 One-electron integrals computed using PRISM.
 NBasis=    22 RedAO= T  NBF=    22
 NBsUse=    22 1.00D-06 NBFU=    22
 Leave Link  302 at Thu Jan 24 17:57:02 2019, MaxMem=   33554432 cpu:       0.1
 (Enter /home/programs/G09_64/g09/l303.exe)
 DipDrv:  MaxL=1.
 Leave Link  303 at Thu Jan 24 17:57:02 2019, MaxMem=   33554432 cpu:       0.0
 (Enter /home/programs/G09_64/g09/l401.exe)
 Initial guess read from the read-write file.
 B after Tr=     0.000000    0.000000    0.000000
         Rot=    1.000000    0.000000    0.000000    0.000000 Ang=   0.00 deg.
 Guess basis will be translated and rotated to current coordinates.
 Initial guess <Sx>= 0.0000 <Sy>= 0.0000 <Sz>= 0.5000 <S**2>= 0.7875 S= 0.5186
 Generating alternative initial guess.
 Harris functional with IExCor=  205 diagonalized for initial guess.
 ExpMin= 1.69D-01 ExpMax= 1.31D+02 ExpMxC= 1.31D+02 IAcc=1 IRadAn=         1 AccDes= 0.00D+00
 HarFok:  IExCor=  205 AccDes= 0.00D+00 IRadAn=         1 IDoV= 1
 ScaDFX=  1.000000  1.000000  1.000000  1.000000
 FoFCou: FMM=F IPFlag=           0 FMFlag=      100000 FMFlg1=           0
         NFxFlg=           0 DoJE=T BraDBF=F KetDBF=T FulRan=T
         Omega=  0.000000  0.000000  1.000000  0.000000  0.000000 ICntrl=     500 IOpCl=  0
         NMat0=    1 NMatS0=    1 NMatT0=    0 NMatD0=    1 NMtDS0=    0 NMtDT0=    0
         I1Cent=           4 NGrid=           0.
 Symmetry not used in FoFCou.
 Harris En= -152.783631137079    
 Leave Link  401 at Thu Jan 24 17:57:03 2019, MaxMem=   33554432 cpu:       0.2
 (Enter /home/programs/G09_64/g09/l502.exe)
 UHF open shell SCF:
 Requested convergence on RMS density matrix=1.00D-08 within 128 cycles.
 Requested convergence on MAX density matrix=1.00D-06.
 Requested convergence on             energy=1.00D-06.
 No special actions if energy rises.
 Using DIIS extrapolation, IDIIS=  1040.
 Two-electron integral symmetry not used.
 Keep R1 and R2 ints in memory in canonical form, NReq=884165.
 IEnd=       19882 IEndB=       19882 NGot=    33554432 MDV=    33487407
 LenX=    33487407 LenY=    33486482
 Symmetry not used in FoFDir.
 MinBra= 0 MaxBra= 1 Meth= 1.
 IRaf=       0 NMat=   1 IRICut=       1 DoRegI=T DoRafI=F ISym2E= 0 JSym2E=0.

 Cycle   1  Pass 1  IDiag  1:
 E= -152.556262639824    
 DIIS: error= 1.32D-02 at cycle   1 NSaved=   1.
 NSaved= 1 IEnMin= 1 EnMin= -152.556262639824     IErMin= 1 ErrMin= 1.32D-02
 ErrMax= 1.32D-02 EMaxC= 1.00D-01 BMatC= 7.23D-03 BMatP= 7.23D-03
 IDIUse=3 WtCom= 8.68D-01 WtEn= 1.32D-01
 Coeff-Com:  0.100D+01
 Coeff-En:   0.100D+01
 Coeff:      0.100D+01
 Recover alternate guess density for next cycle.
 RMSDP=1.81D-02 MaxDP=1.61D-01              OVMax= 0.00D+00

 Cycle   2  Pass 1  IDiag  1:
 E= -152.468087173077     Delta-E=        0.088175466746 Rises=F Damp=F
 Switch densities from cycles 1 and 2 for lowest energy.
 DIIS: error= 4.57D-02 at cycle   2 NSaved=   2.
 NSaved= 2 IEnMin= 1 EnMin= -152.556262639824     IErMin= 1 ErrMin= 1.32D-02
 ErrMax= 4.57D-02 EMaxC= 1.00D+00 BMatC= 3.07D-01 BMatP= 7.23D-03
 IDIUse=1 WtCom= 1.00D+00 WtEn= 0.00D+00
 Coeff-Com:  0.993D+00 0.690D-02
 Coeff:      0.993D+00 0.690D-02
 Gap=     0.899 Goal=   None    Shift=    0.000
 Gap=     0.573 Goal=   None    Shift=    0.000
 RMSDP=1.08D-01 MaxDP=1.05D+00 DE= 8.82D-02 OVMax= 0.00D+00

 Cycle   3  Pass 1  IDiag  1:
 E= -152.561249876926     Delta-E=       -0.093162703848 Rises=F Damp=F
 DIIS: error= 7.48D-03 at cycle   3 NSaved=   3.
 NSaved= 3 IEnMin= 3 EnMin= -152.561249876926     IErMin= 3 ErrMin= 7.48D-03
 ErrMax= 7.48D-03 EMaxC= 1.00D+00 BMatC= 1.71D-03 BMatP= 7.23D-03
 IDIUse=1 WtCom= 1.00D+00 WtEn= 0.00D+00
 Coeff-Com: -0.512D+00 0.370D-02 0.151D+01
 Coeff:     -0.512D+00 0.370D-02 0.151D+01
 Gap=     0.873 Goal=   None    Shift=    0.000
 Gap=     0.599 Goal=   None    Shift=    0.000
 RMSDP=2.97D-03 MaxDP=3.07D-02 DE=-9.32D-02 OVMax= 0.00D+00

 Cycle   4  Pass 1  IDiag  1:
 E= -152.563168215890     Delta-E=       -0.001918338965 Rises=F Damp=F
 DIIS: error= 2.75D-03 at cycle   4 NSaved=   4.
 NSaved= 4 IEnMin= 4 EnMin= -152.563168215890     IErMin= 4 ErrMin= 2.75D-03
 ErrMax= 2.75D-03 EMaxC= 1.00D+00 BMatC= 3.07D-04 BMatP= 1.71D-03
 IDIUse=1 WtCom= 1.00D+00 WtEn= 0.00D+00
 Coeff-Com:  0.826D-01-0.760D-03-0.610D+00 0.153D+01
 Coeff:      0.826D-01-0.760D-03-0.610D+00 0.153D+01
 Gap=     0.879 Goal=   None    Shift=    0.000
 Gap=     0.593 Goal=   None    Shift=    0.000
 RMSDP=1.56D-03 MaxDP=1.79D-02 DE=-1.92D-03 OVMax= 0.00D+00

 Cycle   5  Pass 1  IDiag  1:
 E= -152.563593274890     Delta-E=       -0.000425058999 Rises=F Damp=F
 DIIS: error= 8.21D-04 at cycle   5 NSaved=   5.
 NSaved= 5 IEnMin= 5 EnMin= -152.563593274890     IErMin= 5 ErrMin= 8.21D-04
 ErrMax= 8.21D-04 EMaxC= 1.00D+00 BMatC= 4.29D-05 BMatP= 3.07D-04
 IDIUse=1 WtCom= 1.00D+00 WtEn= 0.00D+00
 Coeff-Com:  0.765D-01-0.176D-02-0.133D+00-0.392D+00 0.145D+01
 Coeff:      0.765D-01-0.176D-02-0.133D+00-0.392D+00 0.145D+01
 Gap=     0.879 Goal=   None    Shift=    0.000
 Gap=     0.595 Goal=   None    Shift=    0.000
 RMSDP=6.98D-04 MaxDP=8.20D-03 DE=-4.25D-04 OVMax= 0.00D+00

 Cycle   6  Pass 1  IDiag  1:
 E= -152.563648573589     Delta-E=       -0.000055298699 Rises=F Damp=F
 DIIS: error= 1.66D-04 at cycle   6 NSaved=   6.
 NSaved= 6 IEnMin= 6 EnMin= -152.563648573589     IErMin= 6 ErrMin= 1.66D-04
 ErrMax= 1.66D-04 EMaxC= 1.00D+00 BMatC= 2.71D-06 BMatP= 4.29D-05
 IDIUse=1 WtCom= 1.00D+00 WtEn= 0.00D+00
 Coeff-Com: -0.254D-01 0.679D-03 0.790D-01-0.106D-01-0.350D+00 0.131D+01
 Coeff:     -0.254D-01 0.679D-03 0.790D-01-0.106D-01-0.350D+00 0.131D+01
 Gap=     0.879 Goal=   None    Shift=    0.000
 Gap=     0.595 Goal=   None    Shift=    0.000
 RMSDP=1.09D-04 MaxDP=9.36D-04 DE=-5.53D-05 OVMax= 0.00D+00

 Cycle   7  Pass 1  IDiag  1:
 E= -152.563650989629     Delta-E=       -0.000002416040 Rises=F Damp=F
 DIIS: error= 7.08D-05 at cycle   7 NSaved=   7.
 NSaved= 7 IEnMin= 7 EnMin= -152.563650989629     IErMin= 7 ErrMin= 7.08D-05
 ErrMax= 7.08D-05 EMaxC= 1.00D+00 BMatC= 5.72D-07 BMatP= 2.71D-06
 IDIUse=1 WtCom= 1.00D+00 WtEn= 0.00D+00
 Coeff-Com:  0.416D-02 0.202D-04-0.255D-01 0.469D-01 0.279D-01-0.724D+00
 Coeff-Com:  0.167D+01
 Coeff:      0.416D-02 0.202D-04-0.255D-01 0.469D-01 0.279D-01-0.724D+00
 Coeff:      0.167D+01
 Gap=     0.879 Goal=   None    Shift=    0.000
 Gap=     0.595 Goal=   None    Shift=    0.000
 RMSDP=5.72D-05 MaxDP=4.37D-04 DE=-2.42D-06 OVMax= 0.00D+00

 Cycle   8  Pass 1  IDiag  1:
 E= -152.563651586020     Delta-E=       -0.000000596391 Rises=F Damp=F
 DIIS: error= 2.77D-05 at cycle   8 NSaved=   8.
 NSaved= 8 IEnMin= 8 EnMin= -152.563651586020     IErMin= 8 ErrMin= 2.77D-05
 ErrMax= 2.77D-05 EMaxC= 1.00D+00 BMatC= 8.89D-08 BMatP= 5.72D-07
 IDIUse=1 WtCom= 1.00D+00 WtEn= 0.00D+00
 Coeff-Com:  0.291D-02-0.715D-04-0.703D-02-0.733D-02 0.486D-01-0.710D-01
 Coeff-Com: -0.329D+00 0.136D+01
 Coeff:      0.291D-02-0.715D-04-0.703D-02-0.733D-02 0.486D-01-0.710D-01
 Coeff:     -0.329D+00 0.136D+01
 Gap=     0.879 Goal=   None    Shift=    0.000
 Gap=     0.595 Goal=   None    Shift=    0.000
 RMSDP=2.37D-05 MaxDP=1.60D-04 DE=-5.96D-07 OVMax= 0.00D+00

 Cycle   9  Pass 1  IDiag  1:
 E= -152.563651681325     Delta-E=       -0.000000095305 Rises=F Damp=F
 DIIS: error= 1.51D-05 at cycle   9 NSaved=   9.
[...]
     30  0.804662D-02 -0.268373D-03 -0.251770D-03 -0.126645D-03 -0.891118D-02
     31 -0.767058D-03 -0.690016D-03  0.147208D-03 -0.121284D-03  0.772648D-02
     32 -0.804661D-02  0.268376D-03  0.251772D-03 -0.126644D-03 -0.891118D-02
     33  0.651250D-02 -0.164837D-02  0.426463D-04 -0.126644D-03 -0.891118D-02
     34  0.000000D+00  0.000000D+00  0.000000D+00 -0.974631D-04 -0.323418D-02
     35  0.203549D-01 -0.691431D-02  0.172454D-03  0.443670D-04  0.101529D-02
     36 -0.203549D-01  0.691425D-02 -0.172449D-03  0.443654D-04  0.101528D-02
               26            27            28            29            30 
     26  0.185260D-01
     27  0.173100D-02  0.185260D-01
     28 -0.898030D-02 -0.973031D-02  0.195446D-01
     29  0.825609D-02 -0.928891D-02  0.283779D-02  0.200051D-01
     30 -0.853891D-02  0.750606D-02  0.208778D-02  0.246005D-02  0.185050D-01
     31 -0.973031D-02 -0.898029D-02  0.750667D-02 -0.995012D-02 -0.920010D-02
     32  0.750608D-02 -0.853890D-02 -0.920011D-02  0.721715D-02 -0.882783D-02
     33 -0.928892D-02  0.825608D-02 -0.995012D-02 -0.103279D-01  0.721714D-02
     34  0.363642D-02  0.363643D-02 -0.533972D-02  0.153088D-02  0.153089D-02
     35 -0.140498D-02 -0.183084D-02  0.214575D-02 -0.274526D-03 -0.700388D-03
     36 -0.183085D-02 -0.140499D-02  0.210770D-02 -0.738433D-03 -0.312570D-03
               31            32            33            34            35 
     31  0.195446D-01
     32  0.208777D-02  0.185050D-01
     33  0.283779D-02  0.246005D-02  0.200050D-01
     34 -0.533971D-02  0.153089D-02  0.153090D-02  0.242742D-01
     35  0.210771D-02 -0.312558D-03 -0.738421D-03 -0.967207D-02  0.343540D-01
     36  0.214574D-02 -0.700399D-03 -0.274536D-03 -0.967206D-02 -0.201795D-01
               36 
     36  0.343540D-01
 Leave Link  716 at Thu Jan 24 17:57:08 2019, MaxMem=   33554432 cpu:       0.1
 (Enter /home/programs/G09_64/g09/l103.exe)

 GradGradGradGradGradGradGradGradGradGradGradGradGradGradGradGradGradGrad
 Berny optimization.
 Red2BG is reusing G-inverse.
 Internal  Forces:  Max     0.000243087 RMS     0.000067589
 Search for a saddle point.
 Step number   1 out of a maximum of    2
 All quantities printed in internal units (Hartrees-Bohrs-Radians)
 Swaping is turned off.
 Second derivative matrix not updated -- analytic derivatives used.
 ITU=  0
     Eigenvalues ---   -0.11888   0.00158   0.00460   0.01585   0.03848
     Eigenvalues ---    0.04673   0.05321   0.07180   0.07782   0.12148
     Eigenvalues ---    0.14412   0.15247   0.16958   0.21287   0.23161
     Eigenvalues ---    0.24295   0.31570   0.41071   0.45199   0.46038
     Eigenvalues ---    0.47594   0.48717   0.53927   0.64654
 Eigenvectors required to have negative eigenvalues:
                          R9        R2        D9        D5        D7
   1                    0.70760  -0.68964  -0.05094   0.05094  -0.04829
                          D4        D8        D6        A3        A2
   1                    0.04829  -0.04564   0.04564  -0.04508  -0.04508
 Angle between quadratic step and forces=  73.74 degrees.
 Linear search not attempted -- option 19 set.
 Iteration  1 RMS(Cart)=  0.00048234 RMS(Int)=  0.00000021
 Iteration  2 RMS(Cart)=  0.00000022 RMS(Int)=  0.00000005
 Variable       Old X    -DE/DX   Delta X   Delta X   Delta X     New X
                                 (Linear)    (Quad)   (Total)
    R1        2.90092   0.00018   0.00000   0.00043   0.00043   2.90135
    R2        2.44084  -0.00024   0.00000   0.00031   0.00031   2.44115
    R3        2.05170   0.00000   0.00000  -0.00003  -0.00003   2.05167
    R4        2.05170   0.00000   0.00000  -0.00003  -0.00003   2.05167
    R5        2.71732   0.00003   0.00000   0.00005   0.00005   2.71737
    R6        2.07365   0.00000   0.00000  -0.00001  -0.00001   2.07364
    R7        2.07365   0.00000   0.00000  -0.00001  -0.00001   2.07364
    R8        1.87272   0.00024   0.00000   0.00038   0.00038   1.87310
    R9        1.75805   0.00000   0.00000  -0.00126  -0.00126   1.75680
    A1        1.88329  -0.00001   0.00000  -0.00044  -0.00044   1.88285
    A2        1.96927  -0.00002   0.00000   0.00011   0.00011   1.96938
    A3        1.96927  -0.00002   0.00000   0.00011   0.00011   1.96938
    A4        1.84718  -0.00001   0.00000  -0.00034  -0.00034   1.84683
    A5        1.84718  -0.00001   0.00000  -0.00034  -0.00034   1.84683
    A6        1.93821   0.00006   0.00000   0.00080   0.00080   1.93901
    A7        1.89149   0.00003   0.00000   0.00007   0.00007   1.89156
    A8        1.91100  -0.00001   0.00000  -0.00008  -0.00008   1.91093
    A9        1.91100  -0.00001   0.00000  -0.00008  -0.00008   1.91093
   A10        1.93869  -0.00002   0.00000  -0.00004  -0.00004   1.93865
   A11        1.93869  -0.00002   0.00000  -0.00004  -0.00004   1.93865
   A12        1.87286   0.00001   0.00000   0.00015   0.00015   1.87301
   A13        1.81228   0.00008   0.00000   0.00019   0.00019   1.81247
   A14        3.13912  -0.00003   0.00000  -0.00075  -0.00075   3.13836
   A15        3.14159   0.00000   0.00000   0.00000   0.00000   3.14159
    D1       -3.14158   0.00000   0.00000  -0.00001  -0.00001  -3.14159
    D2       -1.02442   0.00000   0.00000  -0.00006  -0.00006  -1.02448
    D3        1.02443   0.00000   0.00000   0.00004   0.00004   1.02448
    D4       -1.10721  -0.00002   0.00000  -0.00065  -0.00065  -1.10786
    D5        1.00996  -0.00003   0.00000  -0.00070  -0.00070   1.00926
    D6        3.05881  -0.00002   0.00000  -0.00060  -0.00060   3.05821
    D7        1.10722   0.00002   0.00000   0.00063   0.00063   1.10786
    D8       -3.05880   0.00002   0.00000   0.00058   0.00058  -3.05821
    D9       -1.00994   0.00003   0.00000   0.00068   0.00068  -1.00926
   D10       -3.14159   0.00000   0.00000   0.00000   0.00000   3.14159
   D11        1.04159   0.00000   0.00000   0.00007   0.00007   1.04166
   D12       -1.04158   0.00000   0.00000  -0.00007  -0.00007  -1.04166
         Item               Value     Threshold  Converged?
 Maximum Force            0.000243     0.000450     YES
 RMS     Force            0.000068     0.000300     YES
 Maximum Displacement     0.001799     0.001800     YES
 RMS     Displacement     0.000482     0.001200     YES
 Predicted change in Energy=-1.418042D-07
 Optimization completed.
    -- Stationary point found.
                           ----------------------------
                           !   Optimized Parameters   !
                           ! (Angstroms and Degrees)  !
 --------------------------                            --------------------------
 ! Name  Definition              Value          Derivative Info.                !
 --------------------------------------------------------------------------------
 ! R1    R(1,2)                  1.5351         -DE/DX =    0.0002              !
 ! R2    R(1,4)                  1.2916         -DE/DX =   -0.0002              !
 ! R3    R(1,5)                  1.0857         -DE/DX =    0.0                 !
 ! R4    R(1,6)                  1.0857         -DE/DX =    0.0                 !
 ! R5    R(2,3)                  1.4379         -DE/DX =    0.0                 !
 ! R6    R(2,7)                  1.0973         -DE/DX =    0.0                 !
 ! R7    R(2,8)                  1.0973         -DE/DX =    0.0                 !
 ! R8    R(3,9)                  0.991          -DE/DX =    0.0002              !
 ! R9    R(4,10)                 0.9303         -DE/DX =    0.0                 !
 ! A1    A(2,1,4)              107.9045         -DE/DX =    0.0                 !
 ! A2    A(2,1,5)              112.8309         -DE/DX =    0.0                 !
 ! A3    A(2,1,6)              112.8309         -DE/DX =    0.0                 !
 ! A4    A(4,1,5)              105.8354         -DE/DX =    0.0                 !
 ! A5    A(4,1,6)              105.8354         -DE/DX =    0.0                 !
 ! A6    A(5,1,6)              111.0514         -DE/DX =    0.0001              !
 ! A7    A(1,2,3)              108.3744         -DE/DX =    0.0                 !
 ! A8    A(1,2,7)              109.4924         -DE/DX =    0.0                 !
 ! A9    A(1,2,8)              109.4924         -DE/DX =    0.0                 !
 ! A10   A(3,2,7)              111.0789         -DE/DX =    0.0                 !
 ! A11   A(3,2,8)              111.0789         -DE/DX =    0.0                 !
 ! A12   A(7,2,8)              107.3067         -DE/DX =    0.0                 !
 ! A13   A(2,3,9)              103.836          -DE/DX =    0.0001              !
 ! A14   L(1,4,10,2,-1)        179.8581         -DE/DX =    0.0                 !
 ! A15   L(1,4,10,2,-2)        180.0            -DE/DX =    0.0                 !
 ! D1    D(4,1,2,3)           -179.9995         -DE/DX =    0.0                 !
 ! D2    D(4,1,2,7)            -58.6949         -DE/DX =    0.0                 !
 ! D3    D(4,1,2,8)             58.6958         -DE/DX =    0.0                 !
 ! D4    D(5,1,2,3)            -63.4384         -DE/DX =    0.0                 !
 ! D5    D(5,1,2,7)             57.8663         -DE/DX =    0.0                 !
 ! D6    D(5,1,2,8)            175.2569         -DE/DX =    0.0                 !
 ! D7    D(6,1,2,3)             63.4393         -DE/DX =    0.0                 !
 ! D8    D(6,1,2,7)           -175.2561         -DE/DX =    0.0                 !
 ! D9    D(6,1,2,8)            -57.8654         -DE/DX =    0.0                 !
 ! D10   D(1,2,3,9)            180.0002         -DE/DX =    0.0                 !
 ! D11   D(7,2,3,9)             59.6788         -DE/DX =    0.0                 !
 ! D12   D(8,2,3,9)            -59.6784         -DE/DX =    0.0                 !
 --------------------------------------------------------------------------------
 GradGradGradGradGradGradGradGradGradGradGradGradGradGradGradGradGradGrad

 Leave Link  103 at Thu Jan 24 17:57:08 2019, MaxMem=   33554432 cpu:       0.0
 (Enter /home/programs/G09_64/g09/l9999.exe)
 1\1\GINC-AF2CIQUS\Freq\UHF\STO-3G\C2H7O1(2)\RAMOS\24-Jan-2019\0\\#P Ge
 om=AllCheck Guess=TCheck SCRF=Check GenChk UHF/STO-3G Freq\\--\\0,2\C,
 1.0721649671,-0.6493558858,-0.0000019294\C,0.1013107135,0.5397507678,-
 0.0000003138\O,-1.2424191767,0.0278179438,0.0000091073\H,2.2753624753,
 -0.1796288716,-0.0000005686\H,0.9919954258,-1.2586593179,0.8950382149\
 H,0.9919964693,-1.2586568442,-0.8950438359\H,0.2860833134,1.1633059443
 ,0.8838340458\H,0.2860733119,1.1633002904,-0.8838407036\H,-1.806459041
 1,0.8426443522,0.0000065328\H,3.1411435416,0.160844621,0.0000004505\\V
 ersion=AM64L-G09RevB.01\HF=-152.5637436\S2=0.78722\S2-1=0.\S2A=0.75032
 3\RMSD=6.792e-10\RMSF=9.676e-05\ZeroPoint=0.0916463\Thermal=0.0963421\
 Dipole=0.0452964,0.5062577,-0.0000044\DipoleDeriv=0.416399,0.0818413,0
 .0000006,0.134212,0.0730811,0.0000005,0.,0.0000001,0.011473,0.4367821,
 -0.0534173,-0.0000002,-0.2109358,0.1855873,0.0000009,0.,0.0000013,0.29
 91035,-0.3495874,-0.1325919,-0.0000004,0.0077515,-0.0306508,-0.0000028
 ,-0.0000007,-0.0000021,-0.4834183,-0.5058262,-0.1444082,-0.0000002,-0.
 1871064,-0.0408044,-0.0000003,-0.0000006,-0.0000002,0.0302631,-0.03707
 09,-0.003702,0.0126323,0.0254124,-0.0153919,0.0271603,-0.0216395,0.000
 8658,-0.0016283,-0.0370712,-0.0037019,-0.0126325,0.0254122,-0.0153921,
 -0.0271602,0.0216396,-0.000866,-0.0016285,-0.0844654,0.0291027,0.03078
 52,-0.0140655,-0.0375412,-0.0425846,-0.0107199,-0.0396406,-0.0560813,-
 0.0844653,0.0291031,-0.0307853,-0.0140652,-0.0375407,0.0425845,0.01072
 04,0.0396401,-0.0560816,0.0372321,0.1269926,0.0000003,0.1460071,-0.085
 8632,0.0000016,0.0000004,0.0000016,0.2801684,0.2080732,0.0707818,0.000
 0002,0.0873775,0.0045159,0.,0.0000003,0.,-0.0221699\Polar=25.080353,0.
 5596104,13.8469134,-0.0000087,-0.000002,10.9987835\PolarDeriv=-3.28754
 61,-2.1869321,1.0046549,0.0000005,0.0000014,0.6231057,-1.9136293,0.832
 5892,0.2682531,0.0000028,-0.0000051,1.9917706,-0.0000035,0.0000034,-0.
 0000019,0.3075751,2.1350531,0.0000014,6.2482641,1.2314794,-1.0404662,-
 0.0000279,-0.0000172,-0.4850596,4.1074256,-1.3970187,0.0832493,-0.0000
 201,-0.0000063,-2.2035262,-0.000052,-0.0000104,-0.0000083,-0.5803703,-
 2.3577081,0.0000258,-4.7788461,-2.9774285,0.2229469,0.0000358,0.000008
 4,0.2848088,-5.8766626,0.1279194,-4.0315106,0.0000188,0.000017,0.49909
 92,0.0000506,0.0000006,0.000005,-1.0372404,-1.3009641,0.0000234,0.5202
 928,0.2450796,0.0686752,-0.0000003,0.0000023,-0.1549796,0.2919524,0.12
 80814,0.1230114,-0.0000007,0.0000011,-0.2345707,0.0000015,0.,0.0000006
 ,0.2363231,-0.212739,-0.0000015,0.3322881,-0.9001864,-0.0193832,1.7178
 703,-0.0640619,-0.1671469,0.304294,-0.2395849,-3.4708647,-0.1362541,2.
 1279584,-0.7058449,0.4103034,0.0527257,0.7508414,-0.3067431,-2.2312439
 ,3.8127261,0.3322846,-0.9001842,-0.0193832,-1.7178739,0.0640623,-0.167
 1465,0.3042947,-0.2395837,-3.4708538,0.1362538,-2.1279601,-0.7058483,-
 0.4102993,-0.0527258,-0.7508403,-0.3067421,-2.231243,-3.81274,0.253134
 3,1.2146745,0.1590574,1.9741188,-0.0060103,0.0581627,-0.2800544,0.5752
 902,2.8571838,-0.0359619,2.0473528,0.6650241,0.2802069,-0.0047642,0.45
 49343,0.4313729,2.0445742,3.9093882,0.2531004,1.2146631,0.1590527,-1.9
 741276,0.0060181,0.0581624,-0.2800587,0.5752699,2.8571567,0.0359694,-2
 .0473609,0.6650285,-0.280195,0.0047695,-0.4549286,0.4313579,2.0445659,
 -3.9094295,-5.957443,2.3721513,-0.4102319,0.0000026,-0.0000021,-0.1123
 696,3.4103008,-3.1341477,3.221061,-0.0000076,0.0000016,-0.0023344,-0.0
 000124,0.0000018,-0.0000017,-1.9587266,1.2898486,0.0000016,6.084471,0.
 6866833,-0.1249224,0.0000019,-0.0000009,0.0624625,-0.0678624,2.7711849
 ,1.5633138,-0.0000003,0.0000016,0.0312021,-0.0000002,-0.0000004,-0.000
 0003,2.7831935,0.8198562,0.0000044\HyperPolar=29.1000077,15.806452,-1.
 5110888,5.4946031,-0.0000339,0.0000244,0.0000134,2.012083,-1.4202008,-
 0.0001006\PG=C01 [X(C2H7O1)]\NImag=1\\0.32070208,-0.11674067,0.6918906
 1,-0.00000059,-0.00000014,0.84731210,-0.16249648,0.11739778,0.00000009
 ,0.72456885,0.10364087,-0.24089826,-0.00000016,0.02448946,0.79908263,0
 .00000004,-0.00000007,-0.12851039,0.00000053,-0.00000039,0.83211239,-0
 .03720236,0.00143144,0.00000021,-0.35399718,-0.15337264,0.00000214,0.6
 7255741,0.03385854,0.01616849,-0.00000026,-0.03900354,-0.16404404,0.00
 000077,-0.13738759,0.62915156,0.00000008,-0.00000006,0.00408493,0.0000
 0147,0.00000129,-0.07268823,-0.00000185,-0.00000299,0.05383645,0.15448
 160,0.07037791,0.00000022,-0.03112764,-0.01685905,0.00000007,0.0008754
 7,0.00840105,-0.00000006,-0.18916698,0.07754461,-0.02328875,0.00000009
 ,0.01265442,0.00471938,0.,0.00204392,-0.00175797,0.,-0.10109272,0.0333
 9464,0.00000023,0.00000009,-0.05302714,0.,-0.00000001,-0.00032767,0.00
 000001,0.,0.00040398,-0.00000034,-0.00000010,0.07022746,-0.05027767,-0
 .01550459,0.03763127,0.00509397,0.01769796,-0.02688030,0.00242108,-0.0
 0152491,0.00076057,-0.01797927,-0.01961181,0.02036892,0.05314809,-0.00
 721218,-0.19701632,0.18294483,-0.00686010,-0.01439442,0.02753035,-0.00
 112413,0.00145501,-0.00093534,-0.00352701,-0.00544621,0.00679589,0.009
 86479,0.19650276,0.02663320,0.17678660,-0.34570044,0.00033507,-0.00559
 273,0.00683813,0.00024245,-0.00010309,0.00005223,-0.00662748,-0.004381
 63,0.00230871,-0.02827824,-0.19028165,0.35105320,-0.05027763,-0.015504
 27,-0.03763096,0.00509403,0.01769790,0.02688032,0.00242102,-0.00152489
 ,-0.00076060,-0.01797928,-0.01961176,-0.02036901,0.00212085,0.00322893
 ,0.00491384,0.05314803,-0.00721191,-0.19701528,-0.18294443,-0.00686012
 ,-0.01439439,-0.02753033,-0.00112408,0.00145496,0.00093534,-0.00352703
 ,-0.00544621,-0.00679592,0.00322893,0.01894202,0.02449619,0.00986449,0
 .19650172,-0.02663289,-0.17678627,-0.34570154,-0.00033513,0.00559272,0
 .00683808,-0.00024245,0.00010311,0.00005224,0.00662745,0.00438158,0.00
 230868,-0.00491381,-0.02449608,-0.01669106,0.02827796,0.19028122,0.351
 05434,0.00548821,0.01655162,0.02630912,-0.07906345,-0.02783484,-0.0456
 4260,-0.02400371,-0.03333315,-0.03316457,0.00092888,-0.00033909,0.0002
 0412,0.00064703,-0.00114833,-0.00039299,-0.00368407,0.00473885,-0.0015
 5115,0.09111436,-0.00410455,-0.01575214,-0.02919597,-0.02991255,-0.190
 75444,-0.16077737,-0.01093149,-0.00812036,-0.01202020,-0.00076899,0.00
 054522,0.00020934,-0.00147475,0.00214102,0.00016069,0.00411585,-0.0033
 9000,0.00130755,0.03707659,0.19594427,-0.00021235,0.00496243,0.0057286
 4,-0.04105364,-0.15639692,-0.32057993,-0.00277480,0.00006422,0.0089236
 1,0.00001172,0.00004319,0.00008145,0.00021777,0.00002229,0.00096164,-0
 .00133293,0.00106556,0.00081074,0.05014181,0.17401310,0.32477539,0.005
 48802,0.01655144,-0.02630920,-0.07906256,-0.02783279,0.04564001,-0.024
 00329,-0.03333291,0.03316516,0.00092889,-0.00033911,-0.00020411,-0.003
 68407,0.00473882,0.00155116,0.00064706,-0.00114836,0.00039300,0.004503
 63,0.00479062,-0.00511702,0.09111318,-0.00410432,-0.01575207,0.0291961
 1,-0.02991051,-0.19075242,0.16077691,-0.01093127,-0.00812029,0.0120204
 5,-0.00076894,0.00054520,-0.00020934,0.00411588,-0.00338999,-0.0013075
 4,-0.00147477,0.00214105,-0.00016067,0.00479036,0.01772454,-0.02476500
 ,0.03707430,0.19594211,0.00021242,-0.00496253,0.00572877,0.04105110,0.
 15639653,-0.32058301,0.00277523,-0.00006376,0.00892310,-0.00001173,-0.
 00004319,0.00008144,0.00133295,-0.00106560,0.00081073,-0.00021776,-0.0
 0002230,0.00096166,0.00511670,0.02476470,-0.02135479,-0.05013942,-0.17
 401272,0.32477881,-0.00852234,-0.00502046,0.00000007,-0.03736905,0.059
 73628,-0.00000020,-0.23881375,0.20589061,-0.00000023,-0.00216595,0.000
 65607,0.,0.00053333,-0.00042517,0.00010753,0.00053331,-0.00042515,-0.0
 0010753,0.00395477,0.00100404,0.00009839,0.00395480,0.00100404,-0.0000
 9842,0.27738855,-0.00271614,-0.00034372,0.00000002,-0.04497869,0.00996
 245,0.00000014,0.31179735,-0.46529359,0.00000150,-0.00056929,0.0002535
 0,0.,-0.00022098,0.00019347,-0.00002477,-0.00022098,0.00019347,0.00002
 476,-0.00036325,0.00153705,0.00093318,-0.00036326,0.00153706,-0.000933
 18,-0.26257016,0.45181455,0.00000009,0.00000003,0.00102466,0.00000048,
 -0.00000034,-0.00297870,-0.00000094,0.00000201,-0.00357427,0.00000001,
 0.,0.00016405,0.00005518,-0.00002999,0.00000400,-0.00005519,0.00002999
 ,0.00000400,-0.00091013,0.00150425,0.00063533,0.00091010,-0.00150428,0
 .00063536,0.00000039,-0.00000165,0.00408985,-0.17738343,-0.06954020,-0
 .00000021,0.00835952,0.00263686,-0.00000003,-0.00025468,-0.00204321,0.
 00000002,0.10120429,0.04809547,0.00000016,0.00797666,0.00246437,0.0015
 1546,0.00797667,0.00246438,-0.00151544,0.00011435,0.00020523,0.0000210
 6,0.00011434,0.00020522,-0.00002105,0.00050634,0.00020540,0.,0.0513859
 3,-0.07295426,-0.01799255,-0.00000008,0.00298385,0.00147351,-0.0000000
 1,-0.00040150,-0.00089377,0.00000001,0.04833406,-0.00351879,0.00000006
 ,0.00342949,0.00101266,0.00024793,0.00342950,0.00101266,-0.00024792,-0
 .00013875,0.00012483,0.00005794,-0.00013875,0.00012482,-0.00005794,0.0
 0014987,0.00014576,0.,0.01530648,0.01851089,-0.00000022,-0.00000009,0.
 00906041,0.,0.,-0.00012066,0.,0.,-0.00001405,0.00000015,0.00000006,-0.
 02222097,-0.00029432,-0.00048469,0.00036288,0.00029434,0.00048469,0.00
 036287,-0.00011032,0.00003392,0.00001791,0.00011031,-0.00003392,0.0000
 1791,0.,0.,-0.00000427,0.00000005,0.00000002,0.01253796\\-0.00026891,0
 .00014975,0.,0.00004537,-0.00013356,0.,-0.00012776,0.00014528,0.000000
 04,0.00021259,0.00011265,0.00000002,-0.00002826,-0.00005124,-0.0000359
 4,-0.00002823,-0.00005122,0.00003592,0.00000998,0.00001068,-0.00000766
 ,0.00000996,0.00001067,0.00000766,0.00017141,-0.00017699,-0.00000002,0
 .00000385,-0.00001601,0.\\\@


 ... UNTIL SCIENCE IS MIXED WITH EMOTION AND APPEALS TO THE HEART AND
 IMAGINATION , IT IS LIKE DEAD INORGANIC MATTER; AND WHEN IT IS SO MIXED
 AND SO TRANSFORMED IT IS LITERATURE.

                                  -- JOHN BURROUGHS
 Job cpu time:  0 days  0 hours  0 minutes  2.3 seconds.
 File lengths (MBytes):  RWF=      5 Int=      0 D2E=      0 Chk=      1 Scr=      1
 Normal termination of Gaussian 09 at Thu Jan 24 17:57:08 2019.
